 Gaussian 16, Revision C.01,

 ----------------------------------------------------------------------
 # B3LYP/6-31G(d,p) empiricaldispersion=GD3BJ int=(grid=ultrafine) opt
 freq=noraman
 ----------------------------------------------------------------------

 -------
 Ac1.xyz
 -------
 Symbolic Z-matrix:
 Charge =  0 Multiplicity = 1

 SCF Done:  E(RB3LYP) =  -543.664240535     A.U. after   13 cycles
 SCF Done:  E(RB3LYP) =  -543.666623498     A.U. after   12 cycles
 SCF Done:  E(RB3LYP) =  -543.666444452     A.U. after   12 cycles
 SCF Done:  E(RB3LYP) =  -543.667233610     A.U. after   11 cycles
 SCF Done:  E(RB3LYP) =  -543.667115970     A.U. after   12 cycles
 SCF Done:  E(RB3LYP) =  -543.667468226     A.U. after   11 cycles
 SCF Done:  E(RB3LYP) =  -543.667605532     A.U. after   11 cycles
 SCF Done:  E(RB3LYP) =  -543.667646893     A.U. after   11 cycles
 SCF Done:  E(RB3LYP) =  -543.667671596     A.U. after   10 cycles
 SCF Done:  E(RB3LYP) =  -543.667679273     A.U. after   10 cycles
 SCF Done:  E(RB3LYP) =  -543.667680241     A.U. after   10 cycles
 SCF Done:  E(RB3LYP) =  -543.667680771     A.U. after    9 cycles
 SCF Done:  E(RB3LYP) =  -543.667680935     A.U. after    7 cycles
 SCF Done:  E(RB3LYP) =  -543.667680932     A.U. after    6 cycles
 Optimization completed.
    -- Stationary point found.
 Normal termination of Gaussian 16 at Thu Feb  3 07:35:45 2022.

 ----------------------------------------------------------------------
 #N Geom=AllCheck Guess=TCheck SCRF=Check GenChk RB3LYP/6-31G(d,p) Freq
 ----------------------------------------------------------------------

 Structure from the checkpoint file:  "Ac1_clust-18.chk"
 -------
 Ac1.xyz
 -------
 Charge =  0 Multiplicity = 1

 SCF Done:  E(RB3LYP) =  -543.667680932     A.U. after    1 cycles

                      1                      2                      3
                      A                      A                      A
 Frequencies --     20.3884                36.8597                43.1703
 Red. masses --      4.8385                 3.3837                 2.5147
 Frc consts  --      0.0012                 0.0027                 0.0028
 IR Inten    --      0.2209                 0.3458                 0.2727

                      4                      5                      6
                      A                      A                      A
 Frequencies --     51.7846                81.2465               105.3557
 Red. masses --      5.5049                 3.9369                 2.7510
 Frc consts  --      0.0087                 0.0153                 0.0180
 IR Inten    --      1.1315                 0.7449                 0.2638

                      7                      8                      9
                      A                      A                      A
 Frequencies --    127.3689               184.2125               199.4277
 Red. masses --      1.9968                 2.5376                 1.9201
 Frc consts  --      0.0191                 0.0507                 0.0450
 IR Inten    --      0.2390                 0.1811                 0.4079

                     10                     11                     12
                      A                      A                      A
 Frequencies --    239.6865               250.7918               288.9068
 Red. masses --      2.4055                 1.9862                 1.6735
 Frc consts  --      0.0814                 0.0736                 0.0823
 IR Inten    --      0.0548                 0.7897                 0.4535

                     13                     14                     15
                      A                      A                      A
 Frequencies --    302.1978               333.9293               395.0244
 Red. masses --      1.8024                 2.1266                 2.3419
 Frc consts  --      0.0970                 0.1397                 0.2153
 IR Inten    --      0.9315                 0.6791                 1.2335

                     16                     17                     18
                      A                      A                      A
 Frequencies --    444.5161               487.0487               534.6983
 Red. masses --      2.5921                 2.5020                 2.2849
 Frc consts  --      0.3018                 0.3497                 0.3849
 IR Inten    --      4.6625                 2.9487                 0.7436

                     19                     20                     21
                      A                      A                      A
 Frequencies --    540.7443               627.8379               712.2916
 Red. masses --      2.3249                 2.0966                 1.7255
 Frc consts  --      0.4005                 0.4869                 0.5158
 IR Inten    --     27.2981                29.4181               110.7120

                     22                     23                     24
                      A                      A                      A
 Frequencies --    727.8380               754.2721               785.1545
 Red. masses --      1.2037                 1.2741                 1.5827
 Frc consts  --      0.3757                 0.4271                 0.5749
 IR Inten    --      3.3443                 2.6883                 7.3871

                     25                     26                     27
                      A                      A                      A
 Frequencies --    797.8610               843.0912               868.1131
 Red. masses --      1.7594                 1.3953                 2.8648
 Frc consts  --      0.6599                 0.5844                 1.2720
 IR Inten    --      9.2594                 1.6499                 1.3313

                     28                     29                     30
                      A                      A                      A
 Frequencies --    885.0987               900.6995               939.8396
 Red. masses --      2.1316                 2.1948                 2.0728
 Frc consts  --      0.9839                 1.0491                 1.0787
 IR Inten    --      2.3085                 2.1146                 3.8685

                     31                     32                     33
                      A                      A                      A
 Frequencies --    946.5036               974.8833              1004.7928
 Red. masses --      1.8371                 1.5167                 1.7418
 Frc consts  --      0.9697                 0.8493                 1.0361
 IR Inten    --      2.7350                 0.4419                 1.9966

                     34                     35                     36
                      A                      A                      A
 Frequencies --   1037.9435              1073.2888              1077.8696
 Red. masses --      1.6854                 2.3859                 1.4882
 Frc consts  --      1.0698                 1.6193                 1.0187
 IR Inten    --      0.4509                 3.2717                 6.8854

                     37                     38                     39
                      A                      A                      A
 Frequencies --   1086.2680              1111.0327              1124.7901
 Red. masses --      2.1452                 2.2921                 1.6464
 Frc consts  --      1.4914                 1.6670                 1.2272
 IR Inten    --      1.4683                 0.6073                55.5093

                     40                     41                     42
                      A                      A                      A
 Frequencies --   1143.2244              1167.3451              1199.6393
 Red. masses --      1.6884                 2.0326                 1.6835
 Frc consts  --      1.3001                 1.6320                 1.4275
 IR Inten    --      0.4057                82.7301               100.3513

                     43                     44                     45
                      A                      A                      A
 Frequencies --   1220.8448              1249.2443              1256.6120
 Red. masses --      1.4836                 1.2909                 1.3460
 Frc consts  --      1.3028                 1.1870                 1.2522
 IR Inten    --      4.4915                 3.3362                11.2613

                     46                     47                     48
                      A                      A                      A
 Frequencies --   1297.6233              1306.5058              1327.5334
 Red. masses --      1.2844                 1.3007                 1.3842
 Frc consts  --      1.2742                 1.3081                 1.4373
 IR Inten    --      0.8272                 0.4506                 4.1117

                     49                     50                     51
                      A                      A                      A
 Frequencies --   1329.9903              1340.6286              1347.1925
 Red. masses --      1.1956                 1.1818                 1.1942
 Frc consts  --      1.2461                 1.2515                 1.2770
 IR Inten    --      0.4639                 2.1875                 2.8934

                     52                     53                     54
                      A                      A                      A
 Frequencies --   1367.4985              1387.2910              1390.4388
 Red. masses --      1.2075                 1.4040                 1.4115
 Frc consts  --      1.3304                 1.5921                 1.6079
 IR Inten    --      2.9503                 8.5293                 8.7344

                     55                     56                     57
                      A                      A                      A
 Frequencies --   1399.0435              1415.6624              1421.0029
 Red. masses --      1.4499                 1.4662                 1.8912
 Frc consts  --      1.6721                 1.7313                 2.2500
 IR Inten    --      2.7296                 2.8790                43.0460

                     58                     59                     60
                      A                      A                      A
 Frequencies --   1424.9235              1430.2379              1480.6452
 Red. masses --      1.5212                 1.2876                 1.1229
 Frc consts  --      1.8198                 1.5519                 1.4505
 IR Inten    --      1.3723                 4.5761                10.8795

                     61                     62                     63
                      A                      A                      A
 Frequencies --   1495.3597              1497.6095              1502.1305
 Red. masses --      1.0748                 1.0790                 1.0774
 Frc consts  --      1.4161                 1.4258                 1.4323
 IR Inten    --      4.3602                 3.5412                 2.8900

                     64                     65                     66
                      A                      A                      A
 Frequencies --   1504.2074              1506.7295              1514.3912
 Red. masses --      1.0782                 1.0908                 1.0859
 Frc consts  --      1.4374                 1.4590                 1.4673
 IR Inten    --      0.5998                 1.8647                 6.7691

                     67                     68                     69
                      A                      A                      A
 Frequencies --   1516.3145              1520.6484              1523.8625
 Red. masses --      1.0573                 1.0943                 1.0619
 Frc consts  --      1.4323                 1.4908                 1.4528
 IR Inten    --      5.2938                 0.6006                 6.0196

                     70                     71                     72
                      A                      A                      A
 Frequencies --   1842.3975              3015.0841              3020.0597
 Red. masses --      9.5767                 1.0644                 1.0609
 Frc consts  --     19.1528                 5.7011                 5.7009
 IR Inten    --    215.9227                11.8121                22.1223

                     73                     74                     75
                      A                      A                      A
 Frequencies --   3023.1668              3024.2442              3033.0240
 Red. masses --      1.0626                 1.0611                 1.0657
 Frc consts  --      5.7222                 5.7177                 5.7761
 IR Inten    --      3.3332                42.0500                37.1715

                     76                     77                     78
                      A                      A                      A
 Frequencies --   3041.1342              3043.3779              3045.7853
 Red. masses --      1.0382                 1.0681                 1.0655
 Frc consts  --      5.6572                 5.8285                 5.8238
 IR Inten    --     25.4591                13.8782                10.5138

                     79                     80                     81
                      A                      A                      A
 Frequencies --   3052.0125              3057.4200              3059.5610
 Red. masses --      1.0803                 1.0936                 1.0801
 Frc consts  --      5.9287                 6.0231                 5.9570
 IR Inten    --     10.3368                 7.7711                52.2593

                     82                     83                     84
                      A                      A                      A
 Frequencies --   3061.3911              3063.1219              3080.9377
 Red. masses --      1.0998                 1.0925                 1.1029
 Frc consts  --      6.0728                 6.0394                 6.1678
 IR Inten    --     16.5366                42.4860               107.7173

                     85                     86                     87
                      A                      A                      A
 Frequencies --   3088.5746              3096.9524              3108.3317
 Red. masses --      1.1034                 1.1029                 1.1016
 Frc consts  --      6.2015                 6.2322                 6.2706
 IR Inten    --     48.4582                18.5003                44.7856

                     88                     89                     90
                      A                      A                      A
 Frequencies --   3110.2416              3118.2231              3745.5880
 Red. masses --      1.0983                 1.1015                 1.0639
 Frc consts  --      6.2599                 6.3103                 8.7943
 IR Inten    --     30.3017                47.5032                45.4240

 - Thermochemistry -
 -------------------
 Temperature   298.150 Kelvin.  Pressure   1.00000 Atm.
 Atom     1 has atomic number  8 and mass  15.99491

 Molecular mass:   172.14633 amu.
 Principal axes and moments of inertia in atomic units:
                           1         2         3
     Eigenvalues --  1288.301254872.584975309.84574
           X            0.99987   0.01405  -0.00766
           Y           -0.01401   0.99989   0.00453
           Z            0.00772  -0.00442   0.99996
 This molecule is an asymmetric top.
 Rotational symmetry number  1.
 Warning -- assumption of classical behavior for rotation
           may cause significant error
 Rotational temperatures (Kelvin)      0.06723     0.01778     0.01631
 Rotational constants (GHZ):           1.40087     0.37039     0.33989
 Zero-point vibrational energy     766578.0 (Joules/Mol)
                                  183.21654 (Kcal/Mol)
 Warning -- explicit consideration of  19 degrees of freedom as
           vibrations may cause significant error
 Vibrational temperatures:     29.33    53.03    62.11    74.51   116.90
          (Kelvin)            151.58   183.26   265.04   286.93   344.86
                              360.83   415.67   434.80   480.45   568.35
                              639.56   700.75   769.31   778.01   903.32
                             1024.83  1047.20  1085.23  1129.66  1147.94
                             1213.02  1249.02  1273.46  1295.91  1352.22
                             1361.81  1402.64  1445.67  1493.37  1544.22
                             1550.81  1562.90  1598.53  1618.32  1644.84
                             1679.55  1726.01  1756.52  1797.38  1807.98
                             1866.99  1879.77  1910.02  1913.56  1928.87
                             1938.31  1967.53  1996.00  2000.53  2012.91
                             2036.82  2044.51  2050.15  2057.79  2130.32
                             2151.49  2154.73  2161.23  2164.22  2167.85
                             2178.87  2181.64  2187.87  2192.50  2650.80
                             4338.03  4345.19  4349.66  4351.21  4363.85
                             4375.51  4378.74  4382.21  4391.17  4398.95
                             4402.03  4404.66  4407.15  4432.78  4443.77
                             4455.82  4472.20  4474.94  4486.43  5389.07

 Zero-point correction=                           0.291974 (Hartree/Particle)
 Thermal correction to Energy=                    0.306449
 Thermal correction to Enthalpy=                  0.307393
 Thermal correction to Gibbs Free Energy=         0.248123
 Sum of electronic and zero-point Energies=           -543.375707
 Sum of electronic and thermal Energies=              -543.361232
 Sum of electronic and thermal Enthalpies=            -543.360288
 Sum of electronic and thermal Free Energies=         -543.419558

                     E (Thermal)             CV                S
                      KCal/Mol        Cal/Mol-Kelvin    Cal/Mol-Kelvin
 Total                  192.299             52.217            124.743
 Electronic               0.000              0.000              0.000
 Translational            0.889              2.981             41.337
 Rotational               0.889              2.981             31.878
 Vibrational            190.522             46.255             51.528
 Vibration     1          0.593              1.986              6.596
 Vibration     2          0.594              1.982              5.421
 Vibration     3          0.595              1.980              5.108
 Vibration     4          0.596              1.977              4.748
 Vibration     5          0.600              1.962              3.861
 Vibration     6          0.605              1.945              3.353
 Vibration     7          0.611              1.926              2.985
 Vibration     8          0.631              1.861              2.285
 Vibration     9          0.638              1.841              2.138
 Vibration    10          0.657              1.780              1.805
 Vibration    11          0.663              1.761              1.725
 Vibration    12          0.685              1.694              1.480
 Vibration    13          0.694              1.670              1.405
 Vibration    14          0.715              1.608              1.241
 Vibration    15          0.762              1.481              0.981
 Vibration    16          0.804              1.373              0.813
 Vibration    17          0.843              1.279              0.691
 Vibration    18          0.890              1.173              0.577
 Vibration    19          0.896              1.160              0.564

 Optimization completed.
    -- Stationary point found.
 Normal termination of Gaussian 16 at Thu Feb  3 07:37:14 2022.

 ----------------------------------------------------------------------
 # M062X/def2tzvp int=(grid=ultrafine) pop=nbo7 polar prop=efg volume g
 uess=read geom=check
 ----------------------------------------------------------------------

 -------
 Ac1.xyz
 -------
 Structure from the checkpoint file:  "Ac1_clust-18.chk"
 Charge =  0 Multiplicity = 1

 SCF Done:  E(RM062X) =  -543.542172083     A.U. after   11 cycles

  Exact polarizability:     138.150       4.073     119.723       0.474      -0.214     115.079
 Approx polarizability:     142.888       4.075     147.036       3.974       0.966     146.550

 Summary of Natural Population Analysis:

                                     Natural Population
             Natural    ---------------------------------------------
  Atom No    Charge        Core      Valence    Rydberg      Total
 --------------------------------------------------------------------
    O  1   -0.68919      2.00000     6.66709    0.02211     8.68919
    C  2    0.80095      1.99999     3.16158    0.03748     5.19905
    C  3   -0.51920      1.99999     4.50577    0.01343     6.51920
    C  4   -0.38835      1.99999     4.37708    0.01128     6.38835
    C  5   -0.39734      1.99999     4.38592    0.01143     6.39734
    C  6   -0.40738      1.99999     4.39561    0.01178     6.40738
    C  7   -0.38441      1.99999     4.37337    0.01105     6.38441
    C  8   -0.40093      1.99999     4.38978    0.01116     6.40093
    C  9   -0.39706      1.99999     4.38569    0.01137     6.39706
    C 10   -0.38974      1.99999     4.37944    0.01031     6.38974
    C 11   -0.60886      1.99999     4.60004    0.00883     6.60886
    O 12   -0.60536      2.00000     6.57873    0.02663     8.60536
    H 13    0.49266      0.00000     0.50397    0.00337     0.50734
    H 14    0.24401      0.00000     0.75488    0.00111     0.75599
    H 15    0.22533      0.00000     0.77306    0.00161     0.77467
    H 16    0.20818      0.00000     0.79041    0.00141     0.79182
    H 17    0.22071      0.00000     0.77748    0.00182     0.77929
    H 18    0.19251      0.00000     0.80556    0.00193     0.80749
    H 19    0.20437      0.00000     0.79395    0.00168     0.79563
    H 20    0.21504      0.00000     0.78334    0.00162     0.78496
    H 21    0.19353      0.00000     0.80448    0.00199     0.80647
    H 22    0.19904      0.00000     0.79929    0.00168     0.80096
    H 23    0.20024      0.00000     0.79810    0.00167     0.79976
    H 24    0.20297      0.00000     0.79540    0.00163     0.79703
    H 25    0.19312      0.00000     0.80501    0.00188     0.80688
    H 26    0.19319      0.00000     0.80476    0.00205     0.80681
    H 27    0.19884      0.00000     0.79948    0.00168     0.80116
    H 28    0.19991      0.00000     0.79853    0.00155     0.80009
    H 29    0.19258      0.00000     0.80557    0.00185     0.80742
    H 30    0.20023      0.00000     0.79846    0.00131     0.79977
    H 31    0.20952      0.00000     0.78953    0.00095     0.79048
    H 32    0.20089      0.00000     0.79793    0.00118     0.79911
 ====================================================================
 * Total *  0.00000     23.99992    71.77926    0.22082    96.00000

 1\1\GINC-NOTCH075\SP\RM062X\def2TZVP\C10H20O2\U6032257\03-Feb-2022\0\\
 # M062X/def2tzvp int=(grid=ultrafine) pop=nbo7 polar prop=efg volume g
 uess=read geom=check\\Ac1.xyz\\0,1\O,0,5.6838193296,-0.7728901332,-1.3
 380256099\C,0,4.749532125,-0.8435537277,-0.3568549913\C,0,4.475298488,
 -2.2684769637,0.0697754668\C,0,2.9967646932,-2.5159867703,0.403325425\
 C,0,2.1131872196,-2.7430904154,-0.8307309678\C,0,2.0681095593,-1.56801
 71824,-1.8143700193\C,0,1.0626658653,-1.7613848489,-2.9589199385\C,0,1
 .3022170414,-2.9947434181,-3.8436472377\C,0,2.6765024172,-3.0200812184

 Normal termination of Gaussian 16 at Thu Feb  3 07:40:48 2022.
 Gaussian 16:  ES64L-G16RevC.01  3-Jul-2019

 --------------------------------------------------------------------
 # M062X/def2tzvp int=(grid=ultrafine) nmr=giao guess=read geom=check
 --------------------------------------------------------------------

 -------
 Ac1.xyz
 -------
 Structure from the checkpoint file:  "Ac1_clust-18.chk"
 Charge =  0 Multiplicity = 1

                         Standard orientation:
 ---------------------------------------------------------------------
 Center     Atomic      Atomic             Coordinates (Angstroms)
 Number     Number       Type             X           Y           Z
 ---------------------------------------------------------------------
      1          8           0       -2.404329    2.135531   -0.319335
      2          6           0       -2.869971    0.869496   -0.174721
      3          6           0       -2.544891    0.292724    1.185162
      4          6           0       -2.201553   -1.203184    1.130775
      5          6           0       -0.759429   -1.491985    0.692537
      6          6           0       -0.400962   -0.989490   -0.710807
      7          6           0        0.995064   -1.422504   -1.181884
      8          6           0        2.161787   -0.956926   -0.296845
      9          6           0        2.257062    0.564481   -0.137661
     10          6           0        3.442577    1.033649    0.717822
     11          6           0        4.815144    0.736860    0.106716
     12          8           0       -3.494300    0.306084   -1.047024
     13          1           0       -2.687915    2.423819   -1.203827
     14          1           0       -3.443544    0.446068    1.796247
     15          1           0       -1.743821    0.876464    1.647930
     16          1           0       -2.362047   -1.633301    2.125372
     17          1           0       -2.909378   -1.691530    0.452322
     18          1           0       -0.074322   -1.049836    1.427967
     19          1           0       -0.591532   -2.576350    0.735927
     20          1           0       -1.148879   -1.353153   -1.424975
     21          1           0       -0.466375    0.104577   -0.740608
     22          1           0        1.021480   -2.517977   -1.253071
     23          1           0        1.153111   -1.046679   -2.201346
     24          1           0        3.092780   -1.340023   -0.730567
     25          1           0        2.083954   -1.416222    0.697559
     26          1           0        2.321005    1.028877   -1.132377
     27          1           0        1.331406    0.942208    0.313394
     28          1           0        3.352092    2.114434    0.883215
     29          1           0        3.375536    0.567907    1.710536
     30          1           0        4.903765    1.182049   -0.890972
     31          1           0        5.620031    1.145159    0.726106
     32          1           0        4.992716   -0.338137    0.005473
 ---------------------------------------------------------------------

 SCF Done:  E(RM062X) =  -543.542172083     A.U. after    1 cycles

      1  O    Isotropic =    96.9439   Anisotropy =   233.1757

      2  C    Isotropic =   -10.9371   Anisotropy =   129.7813

      3  C    Isotropic =   149.3124   Anisotropy =    27.1497

      4  C    Isotropic =   159.1502   Anisotropy =    14.4535

      5  C    Isotropic =   154.7751   Anisotropy =    24.5402

      6  C    Isotropic =   159.7267   Anisotropy =    18.0497

      7  C    Isotropic =   154.9630   Anisotropy =    12.1083

      8  C    Isotropic =   160.7802   Anisotropy =    19.8431

      9  C    Isotropic =   155.8549   Anisotropy =    19.0809

     10  C    Isotropic =   161.0857   Anisotropy =    17.3159

     11  C    Isotropic =   172.6277   Anisotropy =    22.5722

     12  O    Isotropic =  -158.3327   Anisotropy =   658.3709

     13  H    Isotropic =    25.7332   Anisotropy =    11.1498

     14  H    Isotropic =    29.6530   Anisotropy =     8.8930

     15  H    Isotropic =    29.7762   Anisotropy =     4.5479

     16  H    Isotropic =    30.3073   Anisotropy =    10.2120

     17  H    Isotropic =    29.7736   Anisotropy =     7.7495

     18  H    Isotropic =    30.6000   Anisotropy =     6.0612

     19  H    Isotropic =    30.7927   Anisotropy =     7.8520

     20  H    Isotropic =    30.7720   Anisotropy =     7.8200

     21  H    Isotropic =    30.5873   Anisotropy =     6.9681

     22  H    Isotropic =    30.5260   Anisotropy =     9.0658

     23  H    Isotropic =    30.5285   Anisotropy =     8.7648

     24  H    Isotropic =    30.3672   Anisotropy =     8.3057

     25  H    Isotropic =    30.9190   Anisotropy =     5.0895

     26  H    Isotropic =    31.1995   Anisotropy =     6.3602

     27  H    Isotropic =    30.1823   Anisotropy =     9.1207

     28  H    Isotropic =    30.2998   Anisotropy =     9.2219

     29  H    Isotropic =    30.7813   Anisotropy =     7.3414

     30  H    Isotropic =    31.3699   Anisotropy =     9.0889

     31  H    Isotropic =    30.8712   Anisotropy =    11.1361

     32  H    Isotropic =    30.7693   Anisotropy =     7.1723

 The electronic state is 1-A.
 Alpha  occ. eigenvalues --  -19.67676 -19.62004 -10.67972 -10.55446 -10.53934
 Alpha  occ. eigenvalues --  -10.53209 -10.52864 -10.52735 -10.52638 -10.52622
 Alpha  occ. eigenvalues --  -10.52564 -10.52077  -1.23606  -1.14003  -0.92019
 Alpha  occ. eigenvalues --   -0.89975  -0.86680  -0.82363  -0.78245  -0.74286
 Alpha  occ. eigenvalues --   -0.70565  -0.66998  -0.65267  -0.62791  -0.58565
 Alpha  occ. eigenvalues --   -0.57637  -0.56152  -0.54185  -0.52456  -0.51607
 Alpha  occ. eigenvalues --   -0.50065  -0.49543  -0.48891  -0.46884  -0.46286
 Alpha  occ. eigenvalues --   -0.45047  -0.44464  -0.42265  -0.41387  -0.41195
 Alpha  occ. eigenvalues --   -0.40264  -0.39029  -0.38898  -0.38446  -0.36956
 Alpha  occ. eigenvalues --   -0.36505  -0.36053  -0.35763
 Alpha virt. eigenvalues --    0.04185   0.05426   0.06593   0.07822   0.08043
 Alpha virt. eigenvalues --    0.09280   0.10026   0.11055   0.11941   0.12541
 Alpha virt. eigenvalues --    0.13102   0.13892   0.14470   0.14597   0.15260

 Mulliken charges:
               1
     1  O   -0.402693
     2  C    0.308861
     3  C   -0.308291
     4  C   -0.263599
     5  C   -0.322595
     6  C   -0.349919
     7  C   -0.275642
     8  C   -0.325472
     9  C   -0.292161
    10  C   -0.237601
    11  C   -0.440732
    12  O   -0.331678
    13  H    0.335558
    14  H    0.171019
    15  H    0.169741
    16  H    0.144339
    17  H    0.179160
    18  H    0.157132
    19  H    0.151328
    20  H    0.179799
    21  H    0.163831
    22  H    0.150329
    23  H    0.151052
    24  H    0.150496
    25  H    0.158970
    26  H    0.149186
    27  H    0.141143
    28  H    0.136233
    29  H    0.132556
    30  H    0.137153
    31  H    0.142657
    32  H    0.139839
 Sum of Mulliken charges =  -0.00000

 Dipole moment (field-independent basis, Debye):
    X=              0.8478    Y=              0.5515    Z=              1.0855  Tot=              1.4837
 Quadrupole moment (field-independent basis, Debye-Ang):
   XX=            -83.8874   YY=            -75.1312   ZZ=            -75.9649
   XY=             -2.7688   XZ=             -4.8979   YZ=             -3.3615

 1\1\GINC-NOTCH075\SP\RM062X\def2TZVP\C10H20O2\U6032257\03-Feb-2022\0\\
 # M062X/def2tzvp int=(grid=ultrafine) nmr=giao guess=read geom=check\\
 Ac1.xyz\\0,1\O,0,5.6838193296,-0.7728901332,-1.3380256099\C,0,4.749532
 125,-0.8435537277,-0.3568549913\C,0,4.475298488,-2.2684769637,0.069775
 4668\C,0,2.9967646932,-2.5159867703,0.403325425\C,0,2.1131872196,-2.74
 30904154,-0.8307309678\C,0,2.0681095593,-1.5680171824,-1.8143700193\C,
 0,1.0626658653,-1.7613848489,-2.9589199385\C,0,1.3022170414,-2.9947434
 181,-3.8436472377\C,0,2.6765024172,-3.0200812184,-4.5217268328\C,0,2.9

 Normal termination of Gaussian 16 at Thu Feb  3 07:42:18 2022.
