 Gaussian 16, Revision C.01,

 ----------------------------------------------------------------------
 # B3LYP/6-31G(d,p) empiricaldispersion=GD3BJ int=(grid=ultrafine) opt
 freq=noraman
 ----------------------------------------------------------------------

 -------
 Ac1.xyz
 -------
 Symbolic Z-matrix:
 Charge =  0 Multiplicity = 1

 SCF Done:  E(RB3LYP) =  -543.662364328     A.U. after   13 cycles
 SCF Done:  E(RB3LYP) =  -543.664726515     A.U. after   12 cycles
 SCF Done:  E(RB3LYP) =  -543.664689763     A.U. after   12 cycles
 SCF Done:  E(RB3LYP) =  -543.665430777     A.U. after   11 cycles
 SCF Done:  E(RB3LYP) =  -543.665304626     A.U. after   12 cycles
 SCF Done:  E(RB3LYP) =  -543.665635037     A.U. after   11 cycles
 SCF Done:  E(RB3LYP) =  -543.665672001     A.U. after   12 cycles
 SCF Done:  E(RB3LYP) =  -543.665763195     A.U. after   10 cycles
 SCF Done:  E(RB3LYP) =  -543.665790234     A.U. after   11 cycles
 SCF Done:  E(RB3LYP) =  -543.665799768     A.U. after   10 cycles
 SCF Done:  E(RB3LYP) =  -543.665803216     A.U. after    9 cycles
 SCF Done:  E(RB3LYP) =  -543.665803505     A.U. after    9 cycles
 SCF Done:  E(RB3LYP) =  -543.665803867     A.U. after    9 cycles
 SCF Done:  E(RB3LYP) =  -543.665803979     A.U. after    7 cycles
 Optimization completed.
    -- Stationary point found.
 Normal termination of Gaussian 16 at Thu Feb  3 09:49:33 2022.

 ----------------------------------------------------------------------
 #N Geom=AllCheck Guess=TCheck SCRF=Check GenChk RB3LYP/6-31G(d,p) Freq
 ----------------------------------------------------------------------

 Structure from the checkpoint file:  "Ac1_clust-32.chk"
 -------
 Ac1.xyz
 -------
 Charge =  0 Multiplicity = 1

 SCF Done:  E(RB3LYP) =  -543.665803979     A.U. after    1 cycles

                      1                      2                      3
                      A                      A                      A
 Frequencies --     20.7898                41.8218                52.2301
 Red. masses --      4.5723                 7.1160                 3.5228
 Frc consts  --      0.0012                 0.0073                 0.0057
 IR Inten    --      0.2271                 1.3726                 0.3981

                      4                      5                      6
                      A                      A                      A
 Frequencies --     68.0041                93.3049               114.2259
 Red. masses --      2.2342                 2.8137                 2.3677
 Frc consts  --      0.0061                 0.0144                 0.0182
 IR Inten    --      0.4321                 0.5856                 0.1516

                      7                      8                      9
                      A                      A                      A
 Frequencies --    120.9567               146.9285               172.5867
 Red. masses --      2.6939                 1.9761                 2.7034
 Frc consts  --      0.0232                 0.0251                 0.0474
 IR Inten    --      0.2134                 0.0174                 0.1738

                     10                     11                     12
                      A                      A                      A
 Frequencies --    216.9933               251.9720               281.4962
 Red. masses --      3.2156                 1.1501                 1.8881
 Frc consts  --      0.0892                 0.0430                 0.0882
 IR Inten    --      0.9598                 0.0717                 0.5268

                     13                     14                     15
                      A                      A                      A
 Frequencies --    307.9849               329.7921               393.0149
 Red. masses --      2.1018                 2.7709                 2.7278
 Frc consts  --      0.1175                 0.1776                 0.2482
 IR Inten    --      1.1476                 0.1470                 0.4932

                     16                     17                     18
                      A                      A                      A
 Frequencies --    419.1539               475.9677               507.2871
 Red. masses --      2.8151                 2.3593                 2.1989
 Frc consts  --      0.2914                 0.3149                 0.3334
 IR Inten    --      5.4253                 1.9928                 3.6462

                     19                     20                     21
                      A                      A                      A
 Frequencies --    537.8506               626.0524               708.9011
 Red. masses --      2.2465                 2.1930                 1.6796
 Frc consts  --      0.3829                 0.5064                 0.4973
 IR Inten    --     26.7431                27.7023               106.7259

                     22                     23                     24
                      A                      A                      A
 Frequencies --    744.4868               749.3888               789.4764
 Red. masses --      1.2234                 1.2022                 1.3062
 Frc consts  --      0.3995                 0.3978                 0.4797
 IR Inten    --      6.8748                 4.4372                 1.9444

                     25                     26                     27
                      A                      A                      A
 Frequencies --    795.5743               832.1966               887.0812
 Red. masses --      1.8176                 1.8746                 2.2912
 Frc consts  --      0.6778                 0.7649                 1.0623
 IR Inten    --      6.4789                 6.5323                 2.7630

                     28                     29                     30
                      A                      A                      A
 Frequencies --    895.5219               915.2512               938.4095
 Red. masses --      1.8724                 1.6402                 2.2019
 Frc consts  --      0.8847                 0.8095                 1.1424
 IR Inten    --      1.9820                 1.4196                 3.3090

                     31                     32                     33
                      A                      A                      A
 Frequencies --    956.8129               979.9091              1016.2338
 Red. masses --      1.8705                 1.6070                 2.2255
 Frc consts  --      1.0089                 0.9091                 1.3541
 IR Inten    --      3.3795                 0.7616                 0.3639

                     34                     35                     36
                      A                      A                      A
 Frequencies --   1048.2177              1066.6808              1069.6101
 Red. masses --      1.8884                 2.2307                 1.8482
 Frc consts  --      1.2225                 1.4954                 1.2458
 IR Inten    --      4.4653                 1.3709                 2.5817

                     37                     38                     39
                      A                      A                      A
 Frequencies --   1094.8661              1105.6704              1128.7166
 Red. masses --      2.0551                 2.1313                 1.5822
 Frc consts  --      1.4515                 1.5351                 1.1876
 IR Inten    --      3.3568                 0.5862                77.9091

                     40                     41                     42
                      A                      A                      A
 Frequencies --   1139.6526              1182.6758              1207.9846
 Red. masses --      2.1269                 2.3422                 1.4047
 Frc consts  --      1.6276                 1.9302                 1.2077
 IR Inten    --      6.3212               138.5617                42.9280

                     43                     44                     45
                      A                      A                      A
 Frequencies --   1225.8141              1256.8856              1260.7103
 Red. masses --      1.4231                 1.3847                 1.2625
 Frc consts  --      1.2599                 1.2888                 1.1823
 IR Inten    --      7.0051                 9.1003                 1.5169

                     46                     47                     48
                      A                      A                      A
 Frequencies --   1283.9774              1309.7017              1324.5632
 Red. masses --      1.2775                 1.2714                 1.4260
 Frc consts  --      1.2408                 1.2849                 1.4740
 IR Inten    --      2.8616                 1.0147                 4.2349

                     49                     50                     51
                      A                      A                      A
 Frequencies --   1332.5527              1337.4659              1344.2776
 Red. masses --      1.2144                 1.1173                 1.0996
 Frc consts  --      1.2706                 1.1776                 1.1707
 IR Inten    --      2.4223                 1.1276                 0.2349

                     52                     53                     54
                      A                      A                      A
 Frequencies --   1356.6522              1387.4433              1391.9419
 Red. masses --      1.2111                 1.4038                 1.4078
 Frc consts  --      1.3133                 1.5921                 1.6070
 IR Inten    --      4.9250                 1.7981                 4.7796

                     55                     56                     57
                      A                      A                      A
 Frequencies --   1394.0749              1414.7740              1420.7892
 Red. masses --      1.4523                 1.5309                 1.6251
 Frc consts  --      1.6630                 1.8054                 1.9328
 IR Inten    --      2.5721                 2.3201                22.0157

                     58                     59                     60
                      A                      A                      A
 Frequencies --   1423.4100              1428.1474              1479.7635
 Red. masses --      1.8127                 1.2626                 1.1187
 Frc consts  --      2.1639                 1.5172                 1.4433
 IR Inten    --     31.9383                 2.3201                11.6132

                     61                     62                     63
                      A                      A                      A
 Frequencies --   1496.2188              1498.0961              1502.0255
 Red. masses --      1.0807                 1.0786                 1.0690
 Frc consts  --      1.4255                 1.4262                 1.4210
 IR Inten    --      1.0438                 9.9193                 0.3565

                     64                     65                     66
                      A                      A                      A
 Frequencies --   1505.8448              1508.4252              1514.3230
 Red. masses --      1.0849                 1.0865                 1.0420
 Frc consts  --      1.4494                 1.4565                 1.4078
 IR Inten    --      1.1162                 3.5128                 5.3363

                     67                     68                     69
                      A                      A                      A
 Frequencies --   1514.8574              1519.3968              1526.8107
 Red. masses --      1.0724                 1.0892                 1.0887
 Frc consts  --      1.4499                 1.4815                 1.4953
 IR Inten    --      0.4711                 3.8457                 3.3678

                     70                     71                     72
                      A                      A                      A
 Frequencies --   1841.1602              3011.9716              3016.5329
 Red. masses --      9.5583                 1.0605                 1.0605
 Frc consts  --     19.0904                 5.6684                 5.6856
 IR Inten    --    215.3754                 0.1633                14.5246

                     73                     74                     75
                      A                      A                      A
 Frequencies --   3018.2986              3022.7758              3026.6479
 Red. masses --      1.0674                 1.0696                 1.0617
 Frc consts  --      5.7295                 5.7579                 5.7303
 IR Inten    --      2.6780                39.9123                71.8915

                     76                     77                     78
                      A                      A                      A
 Frequencies --   3033.9152              3037.4465              3043.5814
 Red. masses --      1.0638                 1.0372                 1.0939
 Frc consts  --      5.7691                 5.6381                 5.9704
 IR Inten    --     24.6290                34.6299                 8.4428

                     79                     80                     81
                      A                      A                      A
 Frequencies --   3044.6153              3052.0236              3054.7464
 Red. masses --      1.0655                 1.1015                 1.0624
 Frc consts  --      5.8190                 6.0453                 5.8411
 IR Inten    --     12.0929                 9.8952                27.7452

                     82                     83                     84
                      A                      A                      A
 Frequencies --   3066.3202              3071.3545              3075.7262
 Red. masses --      1.0991                 1.0965                 1.1037
 Frc consts  --      6.0884                 6.0941                 6.1515
 IR Inten    --     40.1480                12.5793                84.8213

                     85                     86                     87
                      A                      A                      A
 Frequencies --   3092.9604              3096.8706              3105.9249
 Red. masses --      1.0976                 1.1007                 1.1028
 Frc consts  --      6.1863                 6.2196                 6.2678
 IR Inten    --     37.5682                27.1507                62.1403

                     88                     89                     90
                      A                      A                      A
 Frequencies --   3109.3269              3111.7921              3746.0699
 Red. masses --      1.0978                 1.1019                 1.0639
 Frc consts  --      6.2533                 6.2866                 8.7966
 IR Inten    --     33.8948                42.4689                45.2670

 - Thermochemistry -
 -------------------
 Temperature   298.150 Kelvin.  Pressure   1.00000 Atm.
 Atom     1 has atomic number  8 and mass  15.99491

 Molecular mass:   172.14633 amu.
 Principal axes and moments of inertia in atomic units:
                           1         2         3
     Eigenvalues --  1142.931335573.523595829.42160
           X            0.99993   0.00383  -0.01137
           Y           -0.00343   0.99939   0.03467
           Z            0.01150  -0.03463   0.99933
 This molecule is an asymmetric top.
 Rotational symmetry number  1.
 Warning -- assumption of classical behavior for rotation
           may cause significant error
 Rotational temperatures (Kelvin)      0.07578     0.01554     0.01486
 Rotational constants (GHZ):           1.57905     0.32381     0.30959
 Zero-point vibrational energy     766033.1 (Joules/Mol)
                                  183.08631 (Kcal/Mol)
 Warning -- explicit consideration of  19 degrees of freedom as
           vibrations may cause significant error
 Vibrational temperatures:     29.91    60.17    75.15    97.84   134.24
          (Kelvin)            164.35   174.03   211.40   248.31   312.20
                              362.53   405.01   443.12   474.50   565.46
                              603.07   684.81   729.87   773.85   900.75
                             1019.95  1071.15  1078.20  1135.88  1144.65
                             1197.35  1276.31  1288.46  1316.84  1350.16
                             1376.64  1409.87  1462.13  1508.15  1534.72
                             1538.93  1575.27  1590.81  1623.97  1639.71
                             1701.61  1738.02  1763.67  1808.38  1813.88
                             1847.36  1884.37  1905.75  1917.25  1924.32
                             1934.12  1951.92  1996.22  2002.69  2005.76
                             2035.54  2044.20  2047.97  2054.79  2129.05
                             2152.73  2155.43  2161.08  2166.57  2170.29
                             2178.77  2179.54  2186.07  2196.74  2649.02
                             4333.56  4340.12  4342.66  4349.10  4354.67
                             4365.13  4370.21  4379.03  4380.52  4391.18
                             4395.10  4411.75  4418.99  4425.28  4450.08
                             4455.71  4468.73  4473.63  4477.17  5389.76

 Zero-point correction=                           0.291767 (Hartree/Particle)
 Thermal correction to Energy=                    0.306334
 Thermal correction to Enthalpy=                  0.307278
 Thermal correction to Gibbs Free Energy=         0.248187
 Sum of electronic and zero-point Energies=           -543.374037
 Sum of electronic and thermal Energies=              -543.359470
 Sum of electronic and thermal Enthalpies=            -543.358526
 Sum of electronic and thermal Free Energies=         -543.417617

                     E (Thermal)             CV                S
                      KCal/Mol        Cal/Mol-Kelvin    Cal/Mol-Kelvin
 Total                  192.227             52.371            124.367
 Electronic               0.000              0.000              0.000
 Translational            0.889              2.981             41.337
 Rotational               0.889              2.981             31.985
 Vibrational            190.450             46.410             51.045
 Vibration     1          0.593              1.986              6.557
 Vibration     2          0.594              1.980              5.171
 Vibration     3          0.596              1.977              4.731
 Vibration     4          0.598              1.969              4.210
 Vibration     5          0.602              1.954              3.590
 Vibration     6          0.607              1.938              3.196
 Vibration     7          0.609              1.932              3.085
 Vibration     8          0.617              1.906              2.712
 Vibration     9          0.626              1.876              2.407
 Vibration    10          0.646              1.815              1.984
 Vibration    11          0.664              1.759              1.717
 Vibration    12          0.681              1.708              1.525
 Vibration    13          0.698              1.659              1.373
 Vibration    14          0.713              1.616              1.261
 Vibration    15          0.760              1.485              0.989
 Vibration    16          0.782              1.429              0.895
 Vibration    17          0.833              1.303              0.721
 Vibration    18          0.862              1.234              0.640
 Vibration    19          0.893              1.166              0.570

 Optimization completed.
    -- Stationary point found.
 Normal termination of Gaussian 16 at Thu Feb  3 09:51:01 2022.

 ----------------------------------------------------------------------
 # M062X/def2tzvp int=(grid=ultrafine) pop=nbo7 polar prop=efg volume g
 uess=read geom=check
 ----------------------------------------------------------------------

 -------
 Ac1.xyz
 -------
 Structure from the checkpoint file:  "Ac1_clust-32.chk"
 Charge =  0 Multiplicity = 1

 SCF Done:  E(RM062X) =  -543.540380038     A.U. after   11 cycles

  Exact polarizability:     141.860       4.226     120.694      -3.119       2.353     112.923
 Approx polarizability:     144.105       4.001     143.483      -3.391      -0.446     148.970

 Summary of Natural Population Analysis:

                                     Natural Population
             Natural    ---------------------------------------------
  Atom No    Charge        Core      Valence    Rydberg      Total
 --------------------------------------------------------------------
    O  1   -0.68859      2.00000     6.66647    0.02213     8.68859
    C  2    0.80111      1.99999     3.16143    0.03747     5.19889
    C  3   -0.51973      1.99999     4.50626    0.01348     6.51973
    C  4   -0.39178      1.99999     4.38037    0.01141     6.39178
    C  5   -0.39184      1.99999     4.38082    0.01102     6.39184
    C  6   -0.41275      1.99999     4.40070    0.01206     6.41275
    C  7   -0.38911      1.99999     4.37836    0.01075     6.38911
    C  8   -0.38586      1.99999     4.37473    0.01114     6.38586
    C  9   -0.39774      1.99999     4.38615    0.01159     6.39774
    C 10   -0.38981      1.99999     4.37951    0.01030     6.38981
    C 11   -0.60110      1.99999     4.59264    0.00847     6.60110
    O 12   -0.60620      2.00000     6.57964    0.02657     8.60620
    H 13    0.49250      0.00000     0.50411    0.00339     0.50750
    H 14    0.24388      0.00000     0.75500    0.00112     0.75612
    H 15    0.22641      0.00000     0.77201    0.00158     0.77359
    H 16    0.20852      0.00000     0.79007    0.00141     0.79148
    H 17    0.22067      0.00000     0.77749    0.00184     0.77933
    H 18    0.19186      0.00000     0.80624    0.00190     0.80814
    H 19    0.20758      0.00000     0.79088    0.00154     0.79242
    H 20    0.20904      0.00000     0.78893    0.00203     0.79096
    H 21    0.19976      0.00000     0.79862    0.00163     0.80024
    H 22    0.20603      0.00000     0.79257    0.00140     0.79397
    H 23    0.19289      0.00000     0.80521    0.00190     0.80711
    H 24    0.19840      0.00000     0.79987    0.00173     0.80160
    H 25    0.19382      0.00000     0.80427    0.00191     0.80618
    H 26    0.19166      0.00000     0.80628    0.00206     0.80834
    H 27    0.19398      0.00000     0.80400    0.00202     0.80602
    H 28    0.19479      0.00000     0.80340    0.00181     0.80521
    H 29    0.19306      0.00000     0.80512    0.00182     0.80694
    H 30    0.20819      0.00000     0.79085    0.00096     0.79181
    H 31    0.19966      0.00000     0.79908    0.00126     0.80034
    H 32    0.20068      0.00000     0.79808    0.00124     0.79932
 ====================================================================
 * Total *  0.00000     23.99992    71.77915    0.22093    96.00000

 1\1\GINC-NOTCH075\SP\RM062X\def2TZVP\C10H20O2\U6032257\03-Feb-2022\0\\
 # M062X/def2tzvp int=(grid=ultrafine) pop=nbo7 polar prop=efg volume g
 uess=read geom=check\\Ac1.xyz\\0,1\O,0,5.7173964782,-0.5864464511,0.18
 45883149\C,0,4.452027182,-0.3825571542,-0.2591654897\C,0,3.4439224114,
 -1.2318685098,0.4826340395\C,0,2.2764761137,-1.6859412678,-0.404803288
 9\C,0,2.5930158236,-2.9030979775,-1.2839248295\C,0,3.7719803575,-2.715
 1494915,-2.2496773559\C,0,3.9620649057,-3.8848033313,-3.2370694166\C,0
 ,3.2810975766,-3.6962401702,-4.6010161671\C,0,1.7590654019,-3.53119685

 Normal termination of Gaussian 16 at Thu Feb  3 09:54:27 2022.
 Gaussian 16:  ES64L-G16RevC.01  3-Jul-2019

 --------------------------------------------------------------------
 # M062X/def2tzvp int=(grid=ultrafine) nmr=giao guess=read geom=check
 --------------------------------------------------------------------

 -------
 Ac1.xyz
 -------
 Structure from the checkpoint file:  "Ac1_clust-32.chk"
 Charge =  0 Multiplicity = 1

                         Standard orientation:
 ---------------------------------------------------------------------
 Center     Atomic      Atomic             Coordinates (Angstroms)
 Number     Number       Type             X           Y           Z
 ---------------------------------------------------------------------
      1          8           0        4.058347    0.849877    0.430694
      2          6           0        3.196094   -0.181553    0.610468
      3          6           0        2.942277   -0.942585   -0.671827
      4          6           0        1.510289   -1.486950   -0.770489
      5          6           0        0.475395   -0.451041   -1.229194
      6          6           0        0.363442    0.792150   -0.334821
      7          6           0       -0.796077    1.734215   -0.718480
      8          6           0       -2.101554    1.501186    0.056796
      9          6           0       -2.728861    0.113436   -0.103780
     10          6           0       -4.073806   -0.021865    0.616382
     11          6           0       -4.694240   -1.412527    0.468927
     12          8           0        2.726721   -0.450469    1.694930
     13          1           0        4.181931    1.249241    1.308772
     14          1           0        3.658228   -1.774673   -0.669511
     15          1           0        3.198666   -0.310656   -1.527217
     16          1           0        1.504168   -2.326816   -1.473788
     17          1           0        1.230785   -1.888719    0.209528
     18          1           0        0.719306   -0.125777   -2.250584
     19          1           0       -0.498639   -0.946492   -1.297348
     20          1           0        0.260838    0.485513    0.713646
     21          1           0        1.306545    1.349037   -0.390787
     22          1           0       -0.488713    2.772927   -0.549133
     23          1           0       -0.990961    1.651747   -1.796894
     24          1           0       -2.834419    2.257627   -0.255274
     25          1           0       -1.915078    1.683243    1.124465
     26          1           0       -2.866061   -0.106728   -1.172153
     27          1           0       -2.043339   -0.652124    0.281529
     28          1           0       -3.936519    0.208964    1.681240
     29          1           0       -4.768726    0.735248    0.229087
     30          1           0       -5.653666   -1.483339    0.991060
     31          1           0       -4.869313   -1.656187   -0.585058
     32          1           0       -4.033322   -2.184095    0.879541
 ---------------------------------------------------------------------

 SCF Done:  E(RM062X) =  -543.540380038     A.U. after    1 cycles

      1  O    Isotropic =    98.0380   Anisotropy =   233.9914

      2  C    Isotropic =   -10.8801   Anisotropy =   129.3728

      3  C    Isotropic =   149.9135   Anisotropy =    27.8951

      4  C    Isotropic =   159.6967   Anisotropy =    14.8763

      5  C    Isotropic =   149.7577   Anisotropy =    31.7876

      6  C    Isotropic =   155.8814   Anisotropy =    24.9919

      7  C    Isotropic =   155.5855   Anisotropy =    14.9198

      8  C    Isotropic =   149.4160   Anisotropy =    26.0930

      9  C    Isotropic =   149.4247   Anisotropy =    31.1259

     10  C    Isotropic =   157.9561   Anisotropy =    25.0879

     11  C    Isotropic =   170.1098   Anisotropy =    27.8498

     12  O    Isotropic =  -158.3026   Anisotropy =   659.8334

     13  H    Isotropic =    25.7344   Anisotropy =    11.2734

     14  H    Isotropic =    29.6548   Anisotropy =     9.0056

     15  H    Isotropic =    29.7607   Anisotropy =     5.6539

     16  H    Isotropic =    30.3981   Anisotropy =     9.8819

     17  H    Isotropic =    29.7573   Anisotropy =     6.3373

     18  H    Isotropic =    30.8576   Anisotropy =     6.5808

     19  H    Isotropic =    30.2168   Anisotropy =     9.0663

     20  H    Isotropic =    31.0029   Anisotropy =     5.2308

     21  H    Isotropic =    30.4975   Anisotropy =     8.8754

     22  H    Isotropic =    30.2025   Anisotropy =     9.1575

     23  H    Isotropic =    31.0482   Anisotropy =     6.4003

     24  H    Isotropic =    30.5238   Anisotropy =     8.0125

     25  H    Isotropic =    30.6955   Anisotropy =     5.9764

     26  H    Isotropic =    30.9925   Anisotropy =     3.9844

     27  H    Isotropic =    30.5108   Anisotropy =     7.3388

     28  H    Isotropic =    30.6847   Anisotropy =     6.7381

     29  H    Isotropic =    30.7354   Anisotropy =     7.3419

     30  H    Isotropic =    30.7625   Anisotropy =    11.1939

     31  H    Isotropic =    31.0574   Anisotropy =     8.3027

     32  H    Isotropic =    31.0119   Anisotropy =     7.8625

 The electronic state is 1-A.
 Alpha  occ. eigenvalues --  -19.67653 -19.62005 -10.67964 -10.55417 -10.53833
 Alpha  occ. eigenvalues --  -10.53078 -10.52719 -10.52684 -10.52667 -10.52580
 Alpha  occ. eigenvalues --  -10.52514 -10.52006  -1.23602  -1.13991  -0.91853
 Alpha  occ. eigenvalues --   -0.89898  -0.86627  -0.82564  -0.78383  -0.73955
 Alpha  occ. eigenvalues --   -0.69621  -0.66733  -0.64818  -0.64382  -0.58549
 Alpha  occ. eigenvalues --   -0.57588  -0.56363  -0.54210  -0.52482  -0.50823
 Alpha  occ. eigenvalues --   -0.50270  -0.49193  -0.48095  -0.47325  -0.46127
 Alpha  occ. eigenvalues --   -0.45341  -0.43448  -0.42963  -0.41673  -0.40417
 Alpha  occ. eigenvalues --   -0.39950  -0.39153  -0.39035  -0.38207  -0.37437
 Alpha  occ. eigenvalues --   -0.36388  -0.36057  -0.35510
 Alpha virt. eigenvalues --    0.04221   0.05945   0.06738   0.07728   0.08253
 Alpha virt. eigenvalues --    0.09195   0.10267   0.10700   0.11796   0.12648
 Alpha virt. eigenvalues --    0.13276   0.13937   0.14438   0.14792   0.15752

 Mulliken charges:
               1
     1  O   -0.403578
     2  C    0.314944
     3  C   -0.310967
     4  C   -0.263613
     5  C   -0.331187
     6  C   -0.346185
     7  C   -0.259290
     8  C   -0.286429
     9  C   -0.317147
    10  C   -0.240501
    11  C   -0.423601
    12  O   -0.333775
    13  H    0.335330
    14  H    0.171306
    15  H    0.172174
    16  H    0.144699
    17  H    0.178077
    18  H    0.154877
    19  H    0.160510
    20  H    0.186727
    21  H    0.150995
    22  H    0.143509
    23  H    0.149304
    24  H    0.139169
    25  H    0.151588
    26  H    0.144970
    27  H    0.144446
    28  H    0.130752
    29  H    0.130238
    30  H    0.141596
    31  H    0.134528
    32  H    0.136530
 Sum of Mulliken charges =  -0.00000

 Dipole moment (field-independent basis, Debye):
    X=              0.3790    Y=              0.3764    Z=             -1.3192  Tot=              1.4232
 Quadrupole moment (field-independent basis, Debye-Ang):
   XX=            -74.1236   YY=            -75.9160   ZZ=            -79.7747
   XY=              0.7603   XZ=             -1.0562   YZ=              4.0862

 1\1\GINC-NOTCH075\SP\RM062X\def2TZVP\C10H20O2\U6032257\03-Feb-2022\0\\
 # M062X/def2tzvp int=(grid=ultrafine) nmr=giao guess=read geom=check\\
 Ac1.xyz\\0,1\O,0,5.7173964782,-0.5864464511,0.1845883149\C,0,4.4520271
 82,-0.3825571542,-0.2591654897\C,0,3.4439224114,-1.2318685098,0.482634
 0395\C,0,2.2764761137,-1.6859412678,-0.4048032889\C,0,2.5930158236,-2.
 9030979775,-1.2839248295\C,0,3.7719803575,-2.7151494915,-2.2496773559\
 C,0,3.9620649057,-3.8848033313,-3.2370694166\C,0,3.2810975766,-3.69624
 01702,-4.6010161671\C,0,1.7590654019,-3.5311968529,-4.564544517\C,0,1.

 Normal termination of Gaussian 16 at Thu Feb  3 09:55:53 2022.
