 Gaussian 16, Revision C.01,

 ----------------------------------------------------------------------
 # B3LYP/6-31G(d,p) empiricaldispersion=GD3BJ int=(grid=ultrafine) opt
 freq=noraman
 ----------------------------------------------------------------------

 -------
 Ac1.xyz
 -------
 Symbolic Z-matrix:
 Charge =  0 Multiplicity = 1

 SCF Done:  E(RB3LYP) =  -543.663865315     A.U. after   13 cycles
 SCF Done:  E(RB3LYP) =  -543.665788738     A.U. after   11 cycles
 SCF Done:  E(RB3LYP) =  -543.665599675     A.U. after   11 cycles
 SCF Done:  E(RB3LYP) =  -543.666002332     A.U. after   10 cycles
 SCF Done:  E(RB3LYP) =  -543.666022807     A.U. after   10 cycles
 SCF Done:  E(RB3LYP) =  -543.666025730     A.U. after    9 cycles
 SCF Done:  E(RB3LYP) =  -543.666019869     A.U. after    9 cycles
 SCF Done:  E(RB3LYP) =  -543.666025735     A.U. after    8 cycles
 SCF Done:  E(RB3LYP) =  -543.666027114     A.U. after    8 cycles
 Optimization completed.
    -- Stationary point found.
 Normal termination of Gaussian 16 at Thu Feb  3 10:04:23 2022.

 ----------------------------------------------------------------------
 #N Geom=AllCheck Guess=TCheck SCRF=Check GenChk RB3LYP/6-31G(d,p) Freq
 ----------------------------------------------------------------------

 Structure from the checkpoint file:  "Ac1_clust-34.chk"
 -------
 Ac1.xyz
 -------
 Charge =  0 Multiplicity = 1

 SCF Done:  E(RB3LYP) =  -543.666027114     A.U. after    1 cycles

                      1                      2                      3
                      A                      A                      A
 Frequencies --     20.7038                32.5051                45.4406
 Red. masses --      9.7917                 3.3506                 2.3441
 Frc consts  --      0.0025                 0.0021                 0.0029
 IR Inten    --      1.2474                 0.0408                 0.0287

                      4                      5                      6
                      A                      A                      A
 Frequencies --     63.2985                79.9887                88.3613
 Red. masses --      2.2111                 2.0002                 3.3845
 Frc consts  --      0.0052                 0.0075                 0.0156
 IR Inten    --      0.0770                 0.1171                 0.7097

                      7                      8                      9
                      A                      A                      A
 Frequencies --    129.9106               137.0305               150.8329
 Red. masses --      2.0276                 2.5383                 2.2547
 Frc consts  --      0.0202                 0.0281                 0.0302
 IR Inten    --      0.0144                 0.4845                 0.2025

                     10                     11                     12
                      A                      A                      A
 Frequencies --    170.9758               229.6558               248.2050
 Red. masses --      2.8427                 2.3803                 1.1320
 Frc consts  --      0.0490                 0.0740                 0.0411
 IR Inten    --      0.2298                 0.7775                 0.0196

                     13                     14                     15
                      A                      A                      A
 Frequencies --    279.8216               335.6543               382.9954
 Red. masses --      3.7215                 3.0481                 3.7745
 Frc consts  --      0.1717                 0.2023                 0.3262
 IR Inten    --      0.4082                 2.6913                 1.0290

                     16                     17                     18
                      A                      A                      A
 Frequencies --    403.6582               470.4276               517.4010
 Red. masses --      2.3600                 2.6024                 2.8225
 Frc consts  --      0.2266                 0.3393                 0.4452
 IR Inten    --      0.0329                 3.1762                21.5452

                     19                     20                     21
                      A                      A                      A
 Frequencies --    519.4503               634.8422               671.5953
 Red. masses --      1.6076                 4.2758                 1.3071
 Frc consts  --      0.2556                 1.0153                 0.3474
 IR Inten    --     20.1609                28.9154                90.7043

                     22                     23                     24
                      A                      A                      A
 Frequencies --    734.1354               744.3694               772.9664
 Red. masses --      1.0890                 1.1249                 1.2767
 Frc consts  --      0.3458                 0.3672                 0.4494
 IR Inten    --      3.4786                10.2078                 1.3637

                     25                     26                     27
                      A                      A                      A
 Frequencies --    799.8520               827.9513               885.4331
 Red. masses --      1.3576                 1.7542                 2.5664
 Frc consts  --      0.5117                 0.7085                 1.1855
 IR Inten    --      2.6998                 0.8559                 7.2197

                     28                     29                     30
                      A                      A                      A
 Frequencies --    893.0488               908.2403               935.8932
 Red. masses --      2.3552                 1.5723                 1.4160
 Frc consts  --      1.1067                 0.7642                 0.7307
 IR Inten    --      3.2011                 0.8060                 1.7334

                     31                     32                     33
                      A                      A                      A
 Frequencies --    979.6503               987.1089              1049.0485
 Red. masses --      1.7723                 2.4170                 3.1052
 Frc consts  --      1.0021                 1.3876                 2.0134
 IR Inten    --      2.4088                 0.3297                 9.2140

                     34                     35                     36
                      A                      A                      A
 Frequencies --   1061.4730              1063.8202              1075.4121
 Red. masses --      2.0774                 1.9534                 1.8386
 Frc consts  --      1.3791                 1.3025                 1.2528
 IR Inten    --      4.6633                 4.6858                 2.1033

                     37                     38                     39
                      A                      A                      A
 Frequencies --   1090.0869              1103.7524              1138.8547
 Red. masses --      2.1225                 2.3715                 2.0198
 Frc consts  --      1.4860                 1.7022                 1.5435
 IR Inten    --      4.5098                 6.7930                37.4713

                     40                     41                     42
                      A                      A                      A
 Frequencies --   1142.2653              1163.5617              1198.2107
 Red. masses --      1.4778                 2.4836                 1.7398
 Frc consts  --      1.1361                 1.9811                 1.4717
 IR Inten    --      3.7392               213.2478                 0.5592

                     43                     44                     45
                      A                      A                      A
 Frequencies --   1237.3682              1250.2526              1274.7785
 Red. masses --      1.3438                 1.4261                 1.3068
 Frc consts  --      1.2123                 1.3134                 1.2513
 IR Inten    --     14.2007                 1.0681                 9.1721

                     46                     47                     48
                      A                      A                      A
 Frequencies --   1290.4880              1308.8343              1321.3749
 Red. masses --      1.2886                 1.3057                 1.2300
 Frc consts  --      1.2644                 1.3178                 1.2653
 IR Inten    --      0.2150                 3.0373                 0.1959

                     49                     50                     51
                      A                      A                      A
 Frequencies --   1331.6604              1333.8951              1338.6806
 Red. masses --      1.2947                 1.0853                 1.0979
 Frc consts  --      1.3527                 1.1377                 1.1593
 IR Inten    --      3.8203                 0.8834                 1.0911

                     52                     53                     54
                      A                      A                      A
 Frequencies --   1344.5114              1378.1507              1381.4205
 Red. masses --      1.0801                 1.4189                 1.5309
 Frc consts  --      1.1504                 1.5878                 1.7212
 IR Inten    --      0.3016                21.6394                11.5332

                     55                     56                     57
                      A                      A                      A
 Frequencies --   1394.0112              1413.4246              1420.8667
 Red. masses --      1.4371                 1.6098                 1.6022
 Frc consts  --      1.6454                 1.8948                 1.9058
 IR Inten    --      5.1919                 4.2860                 3.9556

                     58                     59                     60
                      A                      A                      A
 Frequencies --   1428.0631              1433.8635              1473.3039
 Red. masses --      1.2602                 2.1062                 1.0878
 Frc consts  --      1.5142                 2.5513                 1.3912
 IR Inten    --      2.1741                57.4536                13.7281

                     61                     62                     63
                      A                      A                      A
 Frequencies --   1495.8420              1501.5614              1502.7170
 Red. masses --      1.0796                 1.0749                 1.0742
 Frc consts  --      1.4232                 1.4279                 1.4292
 IR Inten    --      0.9665                 0.0755                 0.2267

                     64                     65                     66
                      A                      A                      A
 Frequencies --   1504.2904              1507.0573              1514.3012
 Red. masses --      1.0784                 1.0901                 1.0402
 Frc consts  --      1.4377                 1.4587                 1.4054
 IR Inten    --      3.8558                 1.6884                 5.5033

                     67                     68                     69
                      A                      A                      A
 Frequencies --   1515.8579              1521.8535              1527.2433
 Red. masses --      1.0731                 1.0978                 1.0898
 Frc consts  --      1.4528                 1.4980                 1.4977
 IR Inten    --      0.8340                 5.1222                 3.2153

                     70                     71                     72
                      A                      A                      A
 Frequencies --   1845.7461              3013.7259              3015.6073
 Red. masses --      9.8050                 1.0610                 1.0621
 Frc consts  --     19.6808                 5.6775                 5.6906
 IR Inten    --    243.2951                 0.0769                 3.9864

                     73                     74                     75
                      A                      A                      A
 Frequencies --   3018.6205              3020.9536              3022.1404
 Red. masses --      1.0630                 1.0619                 1.0659
 Frc consts  --      5.7071                 5.7097                 5.7357
 IR Inten    --      1.3654                47.5611                12.9343

                     76                     77                     78
                      A                      A                      A
 Frequencies --   3028.3497              3037.7154              3043.0115
 Red. masses --      1.0655                 1.0372                 1.0616
 Frc consts  --      5.7571                 5.6390                 5.7916
 IR Inten    --     65.0514                35.0788                 4.4064

                     79                     80                     81
                      A                      A                      A
 Frequencies --   3045.1827              3051.2745              3052.9889
 Red. masses --      1.0971                 1.0968                 1.0902
 Frc consts  --      5.9941                 6.0163                 5.9872
 IR Inten    --      3.6932                14.3084                 9.6102

                     82                     83                     84
                      A                      A                      A
 Frequencies --   3055.0907              3063.9194              3069.1495
 Red. masses --      1.0683                 1.0983                 1.1012
 Frc consts  --      5.8745                 6.0749                 6.1114
 IR Inten    --     47.7959                41.9869                51.4728

                     85                     86                     87
                      A                      A                      A
 Frequencies --   3074.4475              3084.0504              3100.1694
 Red. masses --      1.1020                 1.1000                 1.1044
 Frc consts  --      6.1369                 6.1644                 6.2540
 IR Inten    --     13.6168                56.9153                56.8915

                     88                     89                     90
                      A                      A                      A
 Frequencies --   3106.1465              3112.0500              3753.3256
 Red. masses --      1.1026                 1.1019                 1.0641
 Frc consts  --      6.2680                 6.2878                 8.8321
 IR Inten    --     76.4687                42.6555                45.8418

 - Thermochemistry -
 -------------------
 Temperature   298.150 Kelvin.  Pressure   1.00000 Atm.
 Atom     1 has atomic number  8 and mass  15.99491

 Molecular mass:   172.14633 amu.
 Principal axes and moments of inertia in atomic units:
                           1         2         3
     Eigenvalues --  1365.306206495.990357646.39402
           X            0.99993   0.01174  -0.00154
           Y           -0.01174   0.99993   0.00003
           Z            0.00154  -0.00001   1.00000
 This molecule is an asymmetric top.
 Rotational symmetry number  1.
 Warning -- assumption of classical behavior for rotation
           may cause significant error
 Rotational temperatures (Kelvin)      0.06344     0.01333     0.01133
 Rotational constants (GHZ):           1.32186     0.27782     0.23603
 Zero-point vibrational energy     763978.5 (Joules/Mol)
                                  182.59524 (Kcal/Mol)
 Warning -- explicit consideration of  19 degrees of freedom as
           vibrations may cause significant error
 Vibrational temperatures:     29.79    46.77    65.38    91.07   115.09
          (Kelvin)            127.13   186.91   197.16   217.01   246.00
                              330.42   357.11   402.60   482.93   551.04
                              580.77   676.84   744.42   747.37   913.40
                              966.28  1056.26  1070.98  1112.13  1150.81
                             1191.24  1273.94  1284.90  1306.76  1346.54
                             1409.50  1420.23  1509.35  1527.22  1530.60
                             1547.28  1568.39  1588.05  1638.56  1643.46
                             1674.11  1723.96  1780.30  1798.83  1834.12
                             1856.72  1883.12  1901.16  1915.96  1919.18
                             1926.06  1934.45  1982.85  1987.56  2005.67
                             2033.60  2044.31  2054.66  2063.01  2119.76
                             2152.18  2160.41  2162.07  2164.34  2168.32
                             2178.74  2180.98  2189.61  2197.36  2655.62
                             4336.08  4338.79  4343.12  4346.48  4348.19
                             4357.12  4370.59  4378.21  4381.34  4390.10
                             4392.57  4395.59  4408.30  4415.82  4423.44
                             4437.26  4460.45  4469.05  4477.55  5400.20

 Zero-point correction=                           0.290984 (Hartree/Particle)
 Thermal correction to Energy=                    0.305937
 Thermal correction to Enthalpy=                  0.306881
 Thermal correction to Gibbs Free Energy=         0.246031
 Sum of electronic and zero-point Energies=           -543.375043
 Sum of electronic and thermal Energies=              -543.360090
 Sum of electronic and thermal Enthalpies=            -543.359146
 Sum of electronic and thermal Free Energies=         -543.419996

                     E (Thermal)             CV                S
                      KCal/Mol        Cal/Mol-Kelvin    Cal/Mol-Kelvin
 Total                  191.979             52.780            128.070
 Electronic               0.000              0.000              0.000
 Translational            0.889              2.981             41.337
 Rotational               0.889              2.981             32.583
 Vibrational            190.201             46.819             54.150
 Vibration     1          0.593              1.986              6.566
 Vibration     2          0.594              1.983              5.670
 Vibration     3          0.595              1.979              5.007
 Vibration     4          0.597              1.972              4.352
 Vibration     5          0.600              1.963              3.891
 Vibration     6          0.601              1.957              3.696
 Vibration     7          0.612              1.923              2.947
 Vibration     8          0.614              1.916              2.845
 Vibration     9          0.618              1.902              2.662
 Vibration    10          0.626              1.878              2.425
 Vibration    11          0.652              1.796              1.882
 Vibration    12          0.662              1.766              1.743
 Vibration    13          0.680              1.711              1.535
 Vibration    14          0.717              1.604              1.233
 Vibration    15          0.752              1.506              1.027
 Vibration    16          0.769              1.462              0.949
 Vibration    17          0.827              1.316              0.736
 Vibration    18          0.872              1.211              0.616
 Vibration    19          0.874              1.207              0.611

                           ! Non-Optimized Parameters !
 Normal termination of Gaussian 16 at Thu Feb  3 10:05:53 2022.

 ----------------------------------------------------------------------
 # M062X/def2tzvp int=(grid=ultrafine) pop=nbo7 polar prop=efg volume g
 uess=read geom=check
 ----------------------------------------------------------------------

 -------
 Ac1.xyz
 -------
 Structure from the checkpoint file:  "Ac1_clust-34.chk"
 Charge =  0 Multiplicity = 1

 SCF Done:  E(RM062X) =  -543.541086616     A.U. after   11 cycles

  Exact polarizability:     145.777       1.685     130.103       0.944       2.757     103.220
 Approx polarizability:     146.304       2.583     149.831       2.021       3.790     138.461

 Summary of Natural Population Analysis:

                                     Natural Population
             Natural    ---------------------------------------------
  Atom No    Charge        Core      Valence    Rydberg      Total
 --------------------------------------------------------------------
    O  1   -0.68825      2.00000     6.66640    0.02185     8.68825
    C  2    0.79788      1.99999     3.16622    0.03590     5.20212
    C  3   -0.50895      1.99999     4.49628    0.01268     6.50895
    C  4   -0.38989      1.99999     4.37730    0.01259     6.38989
    C  5   -0.39664      1.99999     4.38558    0.01106     6.39664
    C  6   -0.38570      1.99999     4.37455    0.01116     6.38570
    C  7   -0.39057      1.99999     4.37989    0.01068     6.39057
    C  8   -0.39887      1.99999     4.38739    0.01148     6.39887
    C  9   -0.39185      1.99999     4.38058    0.01128     6.39185
    C 10   -0.39163      1.99999     4.38136    0.01027     6.39163
    C 11   -0.60091      1.99999     4.59242    0.00850     6.60091
    O 12   -0.59591      2.00000     6.56976    0.02615     8.59591
    H 13    0.49269      0.00000     0.50391    0.00340     0.50731
    H 14    0.23267      0.00000     0.76585    0.00148     0.76733
    H 15    0.23243      0.00000     0.76610    0.00147     0.76757
    H 16    0.21040      0.00000     0.78785    0.00174     0.78960
    H 17    0.21077      0.00000     0.78749    0.00173     0.78923
    H 18    0.19397      0.00000     0.80417    0.00187     0.80603
    H 19    0.19408      0.00000     0.80395    0.00197     0.80592
    H 20    0.20073      0.00000     0.79758    0.00169     0.79927
    H 21    0.19400      0.00000     0.80410    0.00190     0.80600
    H 22    0.19400      0.00000     0.80411    0.00189     0.80600
    H 23    0.20707      0.00000     0.79156    0.00137     0.79293
    H 24    0.19349      0.00000     0.80448    0.00203     0.80651
    H 25    0.20222      0.00000     0.79618    0.00160     0.79778
    H 26    0.19423      0.00000     0.80384    0.00192     0.80577
    H 27    0.19291      0.00000     0.80515    0.00195     0.80709
    H 28    0.19406      0.00000     0.80409    0.00185     0.80594
    H 29    0.19299      0.00000     0.80519    0.00182     0.80701
    H 30    0.20047      0.00000     0.79826    0.00127     0.79953
    H 31    0.20835      0.00000     0.79069    0.00096     0.79165
    H 32    0.19974      0.00000     0.79901    0.00125     0.80026
 ====================================================================
 * Total *  0.00000     23.99992    71.78133    0.21875    96.00000

 1\1\GINC-NOTCH075\SP\RM062X\def2TZVP\C10H20O2\U6032257\03-Feb-2022\0\\
 # M062X/def2tzvp int=(grid=ultrafine) pop=nbo7 polar prop=efg volume g
 uess=read geom=check\\Ac1.xyz\\0,1\O,0,6.5442974593,0.0605436114,-0.21
 9268419\C,0,5.2699654708,-0.3055821777,0.0718323581\C,0,4.6969503311,-
 1.2120995965,-0.9917298064\C,0,3.2626005547,-1.6459094525,-0.700210530
 7\C,0,2.6962369972,-2.5639551056,-1.785652034\C,0,1.2508811887,-2.9848
 036087,-1.5038699633\C,0,0.650405669,-4.00035057,-2.4872090814\C,0,0.5
 707686052,-3.5304120532,-3.9536435814\C,0,1.7794285541,-3.9104443307,-

 Normal termination of Gaussian 16 at Thu Feb  3 10:08:59 2022.
 Gaussian 16:  ES64L-G16RevC.01  3-Jul-2019

 --------------------------------------------------------------------
 # M062X/def2tzvp int=(grid=ultrafine) nmr=giao guess=read geom=check
 --------------------------------------------------------------------

 -------
 Ac1.xyz
 -------
 Structure from the checkpoint file:  "Ac1_clust-34.chk"
 Charge =  0 Multiplicity = 1

                         Standard orientation:
 ---------------------------------------------------------------------
 Center     Atomic      Atomic             Coordinates (Angstroms)
 Number     Number       Type             X           Y           Z
 ---------------------------------------------------------------------
      1          8           0       -4.489184    1.775382    0.141109
      2          6           0       -3.918254    0.561676   -0.067856
      3          6           0       -2.431953    0.594922    0.198772
      4          6           0       -1.752472   -0.753502   -0.026152
      5          6           0       -0.247827   -0.704236    0.248392
      6          6           0        0.438243   -2.051698    0.005040
      7          6           0        1.928595   -2.114572    0.370773
      8          6           0        2.839562   -1.142508   -0.405659
      9          6           0        3.070367    0.209613    0.280108
     10          6           0        3.953208    1.156478   -0.537337
     11          6           0        4.203084    2.494819    0.160703
     12          8           0       -4.558070   -0.403078   -0.424036
     13          1           0       -5.434989    1.661586   -0.052053
     14          1           0       -2.286011    0.948989    1.227235
     15          1           0       -1.996457    1.373281   -0.440691
     16          1           0       -2.226655   -1.506493    0.613530
     17          1           0       -1.935004   -1.080210   -1.056335
     18          1           0        0.207839    0.065165   -0.387609
     19          1           0       -0.073361   -0.385933    1.285943
     20          1           0       -0.094773   -2.824818    0.574464
     21          1           0        0.320207   -2.321980   -1.053564
     22          1           0        2.047924   -1.939778    1.449038
     23          1           0        2.268411   -3.142163    0.195473
     24          1           0        2.425113   -0.978604   -1.410576
     25          1           0        3.819133   -1.611796   -0.562515
     26          1           0        2.112419    0.701176    0.486770
     27          1           0        3.535632    0.035717    1.260584
     28          1           0        4.912855    0.665394   -0.747546
     29          1           0        3.483504    1.333133   -1.514368
     30          1           0        4.701650    2.348961    1.125499
     31          1           0        4.834147    3.153465   -0.444303
     32          1           0        3.261126    3.020520    0.353728
 ---------------------------------------------------------------------

 SCF Done:  E(RM062X) =  -543.541086616     A.U. after    1 cycles

      1  O    Isotropic =   105.8101   Anisotropy =   243.5893

      2  C    Isotropic =    -9.1201   Anisotropy =   122.5634

      3  C    Isotropic =   148.8951   Anisotropy =    50.8044

      4  C    Isotropic =   157.1646   Anisotropy =    30.0463

      5  C    Isotropic =   152.3788   Anisotropy =    26.3974

      6  C    Isotropic =   149.6295   Anisotropy =    26.2517

      7  C    Isotropic =   155.1450   Anisotropy =    14.0684

      8  C    Isotropic =   152.1302   Anisotropy =    30.1898

      9  C    Isotropic =   146.7441   Anisotropy =    44.6246

     10  C    Isotropic =   158.1851   Anisotropy =    25.0515

     11  C    Isotropic =   170.2927   Anisotropy =    28.1699

     12  O    Isotropic =  -165.9651   Anisotropy =   653.3458

     13  H    Isotropic =    25.7484   Anisotropy =    11.8251

     14  H    Isotropic =    29.5799   Anisotropy =     5.9694

     15  H    Isotropic =    29.5871   Anisotropy =     5.6818

     16  H    Isotropic =    30.3977   Anisotropy =     6.3848

     17  H    Isotropic =    30.3771   Anisotropy =     5.9687

     18  H    Isotropic =    30.5247   Anisotropy =     7.5393

     19  H    Isotropic =    30.9672   Anisotropy =     4.5235

     20  H    Isotropic =    30.4133   Anisotropy =     7.6794

     21  H    Isotropic =    30.6102   Anisotropy =     6.3264

     22  H    Isotropic =    30.8650   Anisotropy =     6.1257

     23  H    Isotropic =    30.1220   Anisotropy =     9.5597

     24  H    Isotropic =    30.8915   Anisotropy =     3.8639

     25  H    Isotropic =    30.3345   Anisotropy =     7.6798

     26  H    Isotropic =    30.4805   Anisotropy =     8.0770

     27  H    Isotropic =    30.8220   Anisotropy =     5.1050

     28  H    Isotropic =    30.7216   Anisotropy =     7.1979

     29  H    Isotropic =    30.6658   Anisotropy =     6.0487

     30  H    Isotropic =    31.0955   Anisotropy =     8.7074

     31  H    Isotropic =    30.7757   Anisotropy =    11.0995

     32  H    Isotropic =    31.1007   Anisotropy =     7.9244

 The electronic state is 1-A.
 Alpha  occ. eigenvalues --  -19.67479 -19.62174 -10.67976 -10.55544 -10.53706
 Alpha  occ. eigenvalues --  -10.53413 -10.53065 -10.52947 -10.52923 -10.52858
 Alpha  occ. eigenvalues --  -10.52706 -10.52246  -1.23549  -1.14045  -0.92038
 Alpha  occ. eigenvalues --   -0.90094  -0.87129  -0.82963  -0.78575  -0.73568
 Alpha  occ. eigenvalues --   -0.69665  -0.66406  -0.65717  -0.64766  -0.58238
 Alpha  occ. eigenvalues --   -0.57161  -0.56952  -0.54902  -0.53263  -0.51283
 Alpha  occ. eigenvalues --   -0.50227  -0.48590  -0.48548  -0.47384  -0.45943
 Alpha  occ. eigenvalues --   -0.45794  -0.43512  -0.42808  -0.41544  -0.40423
 Alpha  occ. eigenvalues --   -0.40231  -0.39838  -0.39064  -0.38523  -0.38005
 Alpha  occ. eigenvalues --   -0.36775  -0.36214  -0.35779
 Alpha virt. eigenvalues --    0.04532   0.05412   0.06741   0.07262   0.07975
 Alpha virt. eigenvalues --    0.08440   0.09941   0.10618   0.11546   0.12012
 Alpha virt. eigenvalues --    0.13264   0.13794   0.14141   0.14985   0.15321

 Mulliken charges:
               1
     1  O   -0.411716
     2  C    0.354176
     3  C   -0.323944
     4  C   -0.286031
     5  C   -0.307096
     6  C   -0.293536
     7  C   -0.261031
     8  C   -0.297816
     9  C   -0.306638
    10  C   -0.232856
    11  C   -0.425914
    12  O   -0.332951
    13  H    0.335483
    14  H    0.169683
    15  H    0.169445
    16  H    0.156779
    17  H    0.154887
    18  H    0.141982
    19  H    0.153011
    20  H    0.143397
    21  H    0.153486
    22  H    0.150593
    23  H    0.145054
    24  H    0.150249
    25  H    0.145722
    26  H    0.140936
    27  H    0.142080
    28  H    0.130603
    29  H    0.128902
    30  H    0.135753
    31  H    0.141921
    32  H    0.135389
 Sum of Mulliken charges =  -0.00000

 Dipole moment (field-independent basis, Debye):
    X=              1.1051    Y=              1.0066    Z=              0.4274  Tot=              1.5547
 Quadrupole moment (field-independent basis, Debye-Ang):
   XX=            -80.3167   YY=            -79.5429   ZZ=            -77.1897
   XY=             -7.9587   XZ=             -2.0949   YZ=             -1.7748

 1\1\GINC-NOTCH075\SP\RM062X\def2TZVP\C10H20O2\U6032257\03-Feb-2022\0\\
 # M062X/def2tzvp int=(grid=ultrafine) nmr=giao guess=read geom=check\\
 Ac1.xyz\\0,1\O,0,6.5442974593,0.0605436114,-0.219268419\C,0,5.26996547
 08,-0.3055821777,0.0718323581\C,0,4.6969503311,-1.2120995965,-0.991729
 8064\C,0,3.2626005547,-1.6459094525,-0.7002105307\C,0,2.6962369972,-2.
 5639551056,-1.785652034\C,0,1.2508811887,-2.9848036087,-1.5038699633\C
 ,0,0.650405669,-4.00035057,-2.4872090814\C,0,0.5707686052,-3.530412053
 2,-3.9536435814\C,0,1.7794285541,-3.9104443307,-4.8176427172\C,0,1.675

 Normal termination of Gaussian 16 at Thu Feb  3 10:10:16 2022.
