 Gaussian 16, Revision C.01,

 ----------------------------------------------------------------------
 # B3LYP/6-31G(d,p) empiricaldispersion=GD3BJ int=(grid=ultrafine) opt
 freq=noraman
 ----------------------------------------------------------------------

 -------
 Ac1.xyz
 -------
 Symbolic Z-matrix:
 Charge =  0 Multiplicity = 1

 SCF Done:  E(RB3LYP) =  -543.664849651     A.U. after   13 cycles
 SCF Done:  E(RB3LYP) =  -543.667000839     A.U. after   11 cycles
 SCF Done:  E(RB3LYP) =  -543.667108810     A.U. after   10 cycles
 SCF Done:  E(RB3LYP) =  -543.666953560     A.U. after   11 cycles
 SCF Done:  E(RB3LYP) =  -543.667133140     A.U. after   10 cycles
 SCF Done:  E(RB3LYP) =  -543.667137587     A.U. after    8 cycles
 SCF Done:  E(RB3LYP) =  -543.667137982     A.U. after    7 cycles
 SCF Done:  E(RB3LYP) =  -543.667138360     A.U. after    7 cycles
 SCF Done:  E(RB3LYP) =  -543.667138798     A.U. after    8 cycles
 SCF Done:  E(RB3LYP) =  -543.667139043     A.U. after    7 cycles
 SCF Done:  E(RB3LYP) =  -543.667139205     A.U. after    7 cycles
 Optimization completed.
    -- Stationary point found.
 Normal termination of Gaussian 16 at Thu Feb  3 09:32:15 2022.

 ----------------------------------------------------------------------
 #N Geom=AllCheck Guess=TCheck SCRF=Check GenChk RB3LYP/6-31G(d,p) Freq
 ----------------------------------------------------------------------

 Structure from the checkpoint file:  "Ac1_clust-30.chk"
 -------
 Ac1.xyz
 -------
 Charge =  0 Multiplicity = 1

 SCF Done:  E(RB3LYP) =  -543.667139205     A.U. after    1 cycles

                      1                      2                      3
                      A                      A                      A
 Frequencies --     18.8986                25.2195                31.7580
 Red. masses --      6.9614                 4.4657                 3.0362
 Frc consts  --      0.0015                 0.0017                 0.0018
 IR Inten    --      0.9224                 0.1739                 0.0484

                      4                      5                      6
                      A                      A                      A
 Frequencies --     56.1107                68.2797                94.7559
 Red. masses --      2.3819                 2.9300                 2.8126
 Frc consts  --      0.0044                 0.0080                 0.0149
 IR Inten    --      0.0015                 0.1815                 0.4418

                      7                      8                      9
                      A                      A                      A
 Frequencies --    129.7381               182.5347               192.0322
 Red. masses --      1.9327                 3.6436                 1.9533
 Frc consts  --      0.0192                 0.0715                 0.0424
 IR Inten    --      0.0314                 1.7824                 0.1466

                     10                     11                     12
                      A                      A                      A
 Frequencies --    210.8520               237.3184               255.4160
 Red. masses --      2.4523                 1.6641                 1.9490
 Frc consts  --      0.0642                 0.0552                 0.0749
 IR Inten    --      1.0324                 0.0838                 0.5784

                     13                     14                     15
                      A                      A                      A
 Frequencies --    300.7785               320.9157               404.5861
 Red. masses --      1.5881                 2.2680                 2.5539
 Frc consts  --      0.0847                 0.1376                 0.2463
 IR Inten    --      0.2787                 0.0519                 2.1888

                     16                     17                     18
                      A                      A                      A
 Frequencies --    451.0372               481.9670               519.4932
 Red. masses --      4.1034                 2.6317                 1.6181
 Frc consts  --      0.4918                 0.3602                 0.2573
 IR Inten    --     11.5024                 4.7702                19.3233

                     19                     20                     21
                      A                      A                      A
 Frequencies --    533.4717               638.4430               671.4958
 Red. masses --      2.3697                 3.8733                 1.3041
 Frc consts  --      0.3973                 0.9302                 0.3464
 IR Inten    --      5.7224                32.0253                89.5097

                     22                     23                     24
                      A                      A                      A
 Frequencies --    722.1417               753.6533               770.8031
 Red. masses --      1.1901                 1.3635                 1.3224
 Frc consts  --      0.3657                 0.4563                 0.4629
 IR Inten    --      8.3445                12.6050                 3.9483

                     25                     26                     27
                      A                      A                      A
 Frequencies --    800.9797               831.5022               870.1397
 Red. masses --      1.3285                 1.6324                 2.4146
 Frc consts  --      0.5022                 0.6650                 1.0771
 IR Inten    --      5.4860                 2.8511                 2.0270

                     28                     29                     30
                      A                      A                      A
 Frequencies --    884.3880               904.4186               924.3539
 Red. masses --      2.4797                 2.3943                 1.7918
 Frc consts  --      1.1427                 1.1539                 0.9020
 IR Inten    --      1.5155                 3.2492                 0.7067

                     31                     32                     33
                      A                      A                      A
 Frequencies --    962.7207               988.0808               996.8124
 Red. masses --      1.7783                 1.6464                 1.6675
 Frc consts  --      0.9711                 0.9470                 0.9762
 IR Inten    --      0.8303                 6.1185                 0.2558

                     34                     35                     36
                      A                      A                      A
 Frequencies --   1054.1717              1074.3648              1077.6868
 Red. masses --      1.8849                 1.6687                 1.9825
 Frc consts  --      1.2341                 1.1348                 1.3566
 IR Inten    --      3.9036                 1.4328                 4.3801

                     37                     38                     39
                      A                      A                      A
 Frequencies --   1088.7550              1110.8343              1136.2516
 Red. masses --      2.2717                 2.1784                 1.7998
 Frc consts  --      1.5866                 1.5838                 1.3691
 IR Inten    --      0.2015                 0.2809                67.4727

                     40                     41                     42
                      A                      A                      A
 Frequencies --   1143.0523              1167.8301              1179.9433
 Red. masses --      1.7935                 2.2360                 1.5555
 Frc consts  --      1.3807                 1.7967                 1.2759
 IR Inten    --     31.5060               159.6823                16.7369

                     43                     44                     45
                      A                      A                      A
 Frequencies --   1227.6345              1242.1850              1279.8769
 Red. masses --      1.4969                 1.3700                 1.3400
 Frc consts  --      1.3292                 1.2455                 1.2933
 IR Inten    --      7.8650                 5.8237                 5.2451

                     46                     47                     48
                      A                      A                      A
 Frequencies --   1296.4215              1307.6184              1320.9372
 Red. masses --      1.3410                 1.2842                 1.2017
 Frc consts  --      1.3279                 1.2938                 1.2354
 IR Inten    --      3.4244                 0.2987                 0.5300

                     49                     50                     51
                      A                      A                      A
 Frequencies --   1328.3544              1341.0265              1346.9905
 Red. masses --      1.1750                 1.1733                 1.1695
 Frc consts  --      1.2216                 1.2432                 1.2502
 IR Inten    --      0.7518                 5.6739                 0.3687

                     52                     53                     54
                      A                      A                      A
 Frequencies --   1363.7328              1378.2643              1385.7113
 Red. masses --      1.2079                 1.6712                 1.3776
 Frc consts  --      1.3235                 1.8704                 1.5585
 IR Inten    --      2.5829                29.9075                 7.6139

                     55                     56                     57
                      A                      A                      A
 Frequencies --   1398.6333              1414.2563              1421.0736
 Red. masses --      1.4418                 1.4886                 1.5230
 Frc consts  --      1.6617                 1.7543                 1.8121
 IR Inten    --      7.4365                 1.4315                 0.4731

                     58                     59                     60
                      A                      A                      A
 Frequencies --   1430.1596              1433.2704              1474.2929
 Red. masses --      1.2805                 2.0483                 1.0875
 Frc consts  --      1.5431                 2.4792                 1.3926
 IR Inten    --      4.5515                73.4179                10.3264

                     61                     62                     63
                      A                      A                      A
 Frequencies --   1494.8949              1498.9559              1503.6547
 Red. masses --      1.0745                 1.0788                 1.0706
 Frc consts  --      1.4147                 1.4281                 1.4262
 IR Inten    --      1.5420                 0.3209                 0.5751

                     64                     65                     66
                      A                      A                      A
 Frequencies --   1504.7682              1507.9035              1513.5901
 Red. masses --      1.0843                 1.0975                 1.0896
 Frc consts  --      1.4466                 1.4703                 1.4708
 IR Inten    --      8.1284                 2.8742                 8.1269

                     67                     68                     69
                      A                      A                      A
 Frequencies --   1516.8938              1520.7883              1523.6418
 Red. masses --      1.0577                 1.0920                 1.0631
 Frc consts  --      1.4339                 1.4880                 1.4541
 IR Inten    --      2.5024                 0.4636                 6.6967

                     70                     71                     72
                      A                      A                      A
 Frequencies --   1845.6268              3016.6429              3016.8712
 Red. masses --      9.7646                 1.0608                 1.0650
 Frc consts  --     19.5971                 5.6875                 5.7111
 IR Inten    --    243.5721                 7.7292                15.7402

                     73                     74                     75
                      A                      A                      A
 Frequencies --   3021.5005              3025.8498              3030.9369
 Red. masses --      1.0626                 1.0641                 1.0658
 Frc consts  --      5.7158                 5.7401                 5.7686
 IR Inten    --     23.9977                21.2625                66.3679

                     76                     77                     78
                      A                      A                      A
 Frequencies --   3035.1788              3040.4640              3044.6610
 Red. masses --      1.0630                 1.0382                 1.0663
 Frc consts  --      5.7699                 5.6548                 5.8236
 IR Inten    --     16.7412                18.9566                 4.1359

                     79                     80                     81
                      A                      A                      A
 Frequencies --   3051.7502              3054.1792              3055.8969
 Red. masses --      1.0937                 1.0740                 1.0917
 Frc consts  --      6.0012                 5.9028                 6.0065
 IR Inten    --     23.3183                16.2923                15.3910

                     82                     83                     84
                      A                      A                      A
 Frequencies --   3061.6007              3066.5246              3079.9482
 Red. masses --      1.0972                 1.0982                 1.0984
 Frc consts  --      6.0592                 6.0846                 6.1387
 IR Inten    --      7.1790                41.2423                59.0704

                     85                     86                     87
                      A                      A                      A
 Frequencies --   3083.5122              3086.6437              3103.1501
 Red. masses --      1.0978                 1.0995                 1.1015
 Frc consts  --      6.1501                 6.1721                 6.2495
 IR Inten    --     47.4628                84.9730                35.6038

                     88                     89                     90
                      A                      A                      A
 Frequencies --   3107.8755              3118.0398              3753.1980
 Red. masses --      1.1012                 1.1017                 1.0641
 Frc consts  --      6.2670                 6.3105                 8.8314
 IR Inten    --     49.3668                48.0928                46.3860

 - Thermochemistry -
 -------------------
 Temperature   298.150 Kelvin.  Pressure   1.00000 Atm.
 Atom     1 has atomic number  8 and mass  15.99491

 Molecular mass:   172.14633 amu.
 Principal axes and moments of inertia in atomic units:
                           1         2         3
     Eigenvalues --   907.455156999.990657556.66815
           X            0.99995  -0.01029   0.00086
           Y            0.01028   0.99988   0.01136
           Z           -0.00098  -0.01135   0.99994
 This molecule is an asymmetric top.
 Rotational symmetry number  1.
 Warning -- assumption of classical behavior for rotation
           may cause significant error
 Rotational temperatures (Kelvin)      0.09545     0.01237     0.01146
 Rotational constants (GHZ):           1.98879     0.25782     0.23883
 Zero-point vibrational energy     765272.5 (Joules/Mol)
                                  182.90451 (Kcal/Mol)
 Warning -- explicit consideration of  19 degrees of freedom as
           vibrations may cause significant error
 Vibrational temperatures:     27.19    36.29    45.69    80.73    98.24
          (Kelvin)            136.33   186.66   262.63   276.29   303.37
                              341.45   367.49   432.75   461.73   582.11
                              648.94   693.44   747.43   767.55   918.58
                              966.13  1039.00  1084.34  1109.01  1152.43
                             1196.35  1251.94  1272.44  1301.26  1329.94
                             1385.14  1421.63  1434.19  1516.72  1545.77
                             1550.55  1566.48  1598.24  1634.81  1644.60
                             1680.25  1697.68  1766.29  1787.23  1841.46
                             1865.26  1881.37  1900.53  1911.21  1929.44
                             1938.02  1962.11  1983.01  1993.73  2012.32
                             2034.80  2044.61  2057.68  2062.16  2121.18
                             2150.82  2156.66  2163.42  2165.03  2169.54
                             2177.72  2182.47  2188.08  2192.18  2655.45
                             4340.28  4340.60  4347.27  4353.52  4360.84
                             4366.95  4374.55  4380.59  4390.79  4394.28
                             4396.75  4404.96  4412.04  4431.36  4436.49
                             4440.99  4464.74  4471.54  4486.16  5400.01

 Zero-point correction=                           0.291477 (Hartree/Particle)
 Thermal correction to Energy=                    0.306196
 Thermal correction to Enthalpy=                  0.307140
 Thermal correction to Gibbs Free Energy=         0.246452
 Sum of electronic and zero-point Energies=           -543.375662
 Sum of electronic and thermal Energies=              -543.360943
 Sum of electronic and thermal Enthalpies=            -543.359999
 Sum of electronic and thermal Free Energies=         -543.420687

                     E (Thermal)             CV                S
                      KCal/Mol        Cal/Mol-Kelvin    Cal/Mol-Kelvin
 Total                  192.141             52.501            127.729
 Electronic               0.000              0.000              0.000
 Translational            0.889              2.981             41.337
 Rotational               0.889              2.981             32.240
 Vibrational            190.363             46.539             54.151
 Vibration     1          0.593              1.986              6.747
 Vibration     2          0.593              1.985              6.174
 Vibration     3          0.594              1.983              5.716
 Vibration     4          0.596              1.975              4.589
 Vibration     5          0.598              1.969              4.202
 Vibration     6          0.603              1.953              3.559
 Vibration     7          0.612              1.924              2.950
 Vibration     8          0.630              1.864              2.302
 Vibration     9          0.634              1.851              2.208
 Vibration    10          0.643              1.824              2.036
 Vibration    11          0.656              1.784              1.823
 Vibration    12          0.666              1.754              1.693
 Vibration    13          0.693              1.672              1.413
 Vibration    14          0.706              1.633              1.305
 Vibration    15          0.770              1.460              0.946
 Vibration    16          0.810              1.359              0.793
 Vibration    17          0.838              1.290              0.705
 Vibration    18          0.874              1.207              0.611
 Vibration    19          0.888              1.176              0.580

                           ! Non-Optimized Parameters !
 Normal termination of Gaussian 16 at Thu Feb  3 09:33:37 2022.

 ----------------------------------------------------------------------
 # M062X/def2tzvp int=(grid=ultrafine) pop=nbo7 polar prop=efg volume g
 uess=read geom=check
 ----------------------------------------------------------------------

 -------
 Ac1.xyz
 -------
 Structure from the checkpoint file:  "Ac1_clust-30.chk"
 Charge =  0 Multiplicity = 1

 SCF Done:  E(RM062X) =  -543.542337192     A.U. after   11 cycles

  Exact polarizability:     150.399      -2.065     121.912      -1.299      -0.235     104.318
 Approx polarizability:     146.166      -0.477     151.410      -1.282      -1.987     137.154

 Summary of Natural Population Analysis:

                                     Natural Population
             Natural    ---------------------------------------------
  Atom No    Charge        Core      Valence    Rydberg      Total
 --------------------------------------------------------------------
    O  1   -0.68851      2.00000     6.66667    0.02184     8.68851
    C  2    0.79834      1.99999     3.16578    0.03589     5.20166
    C  3   -0.51624      1.99999     4.50316    0.01309     6.51624
    C  4   -0.38966      1.99999     4.37723    0.01243     6.38966
    C  5   -0.39715      1.99999     4.38597    0.01119     6.39715
    C  6   -0.40028      1.99999     4.38922    0.01106     6.40028
    C  7   -0.38482      1.99999     4.37378    0.01105     6.38482
    C  8   -0.40192      1.99999     4.39047    0.01146     6.40192
    C  9   -0.39756      1.99999     4.38593    0.01164     6.39756
    C 10   -0.38941      1.99999     4.37909    0.01032     6.38941
    C 11   -0.60942      1.99999     4.60059    0.00884     6.60942
    O 12   -0.59640      2.00000     6.57026    0.02615     8.59640
    H 13    0.49267      0.00000     0.50396    0.00337     0.50733
    H 14    0.23270      0.00000     0.76576    0.00154     0.76730
    H 15    0.23385      0.00000     0.76468    0.00148     0.76615
    H 16    0.21828      0.00000     0.78024    0.00149     0.78172
    H 17    0.20827      0.00000     0.78998    0.00175     0.79173
    H 18    0.19342      0.00000     0.80460    0.00198     0.80658
    H 19    0.20532      0.00000     0.79303    0.00165     0.79468
    H 20    0.19676      0.00000     0.80138    0.00186     0.80324
    H 21    0.19867      0.00000     0.79976    0.00157     0.80133
    H 22    0.19938      0.00000     0.79893    0.00170     0.80062
    H 23    0.19888      0.00000     0.79945    0.00167     0.80112
    H 24    0.19579      0.00000     0.80240    0.00181     0.80421
    H 25    0.20209      0.00000     0.79621    0.00169     0.79791
    H 26    0.19228      0.00000     0.80575    0.00197     0.80772
    H 27    0.19986      0.00000     0.79846    0.00168     0.80014
    H 28    0.20018      0.00000     0.79827    0.00155     0.79982
    H 29    0.19290      0.00000     0.80524    0.00186     0.80710
    H 30    0.20018      0.00000     0.79850    0.00132     0.79982
    H 31    0.21034      0.00000     0.78872    0.00095     0.78966
    H 32    0.20119      0.00000     0.79767    0.00114     0.79881
 ====================================================================
 * Total *  0.00000     23.99992    71.78111    0.21897    96.00000

 1\1\GINC-NOTCH075\SP\RM062X\def2TZVP\C10H20O2\U6032257\03-Feb-2022\0\\
 # M062X/def2tzvp int=(grid=ultrafine) pop=nbo7 polar prop=efg volume g
 uess=read geom=check\\Ac1.xyz\\0,1\O,0,5.7243810153,-0.3585896265,1.29
 20539583\C,0,5.1164373444,-0.1102054076,0.1038611954\C,0,4.194771009,-
 1.239177894,-0.2926173149\C,0,3.5218040425,-1.0093953519,-1.6453666483
 \C,0,2.5081099394,-2.0974852291,-2.0196975649\C,0,3.1261407272,-3.4811
 996182,-2.2507333706\C,0,2.1048185258,-4.5721771036,-2.6079611449\C,0,
 1.2658700366,-4.3002414234,-3.8654129454\C,0,2.0964046288,-4.108858022

 Normal termination of Gaussian 16 at Thu Feb  3 09:36:57 2022.
 Gaussian 16:  ES64L-G16RevC.01  3-Jul-2019

 --------------------------------------------------------------------
 # M062X/def2tzvp int=(grid=ultrafine) nmr=giao guess=read geom=check
 --------------------------------------------------------------------

 -------
 Ac1.xyz
 -------
 Structure from the checkpoint file:  "Ac1_clust-30.chk"
 Charge =  0 Multiplicity = 1

                         Standard orientation:
 ---------------------------------------------------------------------
 Center     Atomic      Atomic             Coordinates (Angstroms)
 Number     Number       Type             X           Y           Z
 ---------------------------------------------------------------------
      1          8           0        5.056329   -0.454104   -0.195532
      2          6           0        4.003101    0.398648   -0.114178
      3          6           0        2.723138   -0.332876    0.214165
      4          6           0        1.508915    0.593097    0.276232
      5          6           0        0.217832   -0.115026    0.704374
      6          6           0       -0.285925   -1.163708   -0.293875
      7          6           0       -1.569772   -1.883382    0.147429
      8          6           0       -2.778602   -0.971563    0.404890
      9          6           0       -3.196584   -0.133441   -0.808385
     10          6           0       -4.486935    0.670647   -0.598015
     11          6           0       -4.376862    1.748294    0.484802
     12          8           0        4.120427    1.591439   -0.288905
     13          1           0        5.829386    0.096977   -0.404175
     14          1           0        2.874035   -0.851397    1.170133
     15          1           0        2.598912   -1.126477   -0.530974
     16          1           0        1.730655    1.410225    0.970156
     17          1           0        1.367465    1.064146   -0.703673
     18          1           0        0.366175   -0.588872    1.685516
     19          1           0       -0.556236    0.646964    0.850589
     20          1           0       -0.443490   -0.681768   -1.267500
     21          1           0        0.489212   -1.922340   -0.457215
     22          1           0       -1.838528   -2.621049   -0.620200
     23          1           0       -1.358385   -2.455931    1.060341
     24          1           0       -2.567073   -0.314098    1.255841
     25          1           0       -3.627643   -1.596113    0.713582
     26          1           0       -2.388649    0.559949   -1.077458
     27          1           0       -3.325002   -0.800418   -1.671707
     28          1           0       -4.767460    1.144306   -1.546952
     29          1           0       -5.304886   -0.018218   -0.347164
     30          1           0       -3.555426    2.440466    0.265951
     31          1           0       -5.297618    2.336037    0.553828
     32          1           0       -4.189327    1.314779    1.471942
 ---------------------------------------------------------------------

 SCF Done:  E(RM062X) =  -543.542337192     A.U. after    1 cycles

      1  O    Isotropic =   105.0723   Anisotropy =   244.5128

      2  C    Isotropic =    -9.4521   Anisotropy =   122.5865

      3  C    Isotropic =   151.2400   Anisotropy =    44.5442

      4  C    Isotropic =   159.8722   Anisotropy =    24.9464

      5  C    Isotropic =   158.3266   Anisotropy =    16.7086

      6  C    Isotropic =   159.8751   Anisotropy =    21.2677

      7  C    Isotropic =   155.1385   Anisotropy =    12.3801

      8  C    Isotropic =   160.1575   Anisotropy =    20.1063

      9  C    Isotropic =   155.3586   Anisotropy =    23.5494

     10  C    Isotropic =   160.6077   Anisotropy =    17.6650

     11  C    Isotropic =   172.5262   Anisotropy =    21.8819

     12  O    Isotropic =  -165.3217   Anisotropy =   652.9966

     13  H    Isotropic =    25.7436   Anisotropy =    11.9033

     14  H    Isotropic =    29.9214   Anisotropy =     6.6638

     15  H    Isotropic =    29.3174   Anisotropy =     5.8142

     16  H    Isotropic =    29.9903   Anisotropy =     8.3809

     17  H    Isotropic =    30.5241   Anisotropy =     6.3063

     18  H    Isotropic =    31.1952   Anisotropy =     6.4842

     19  H    Isotropic =    30.1616   Anisotropy =     8.7137

     20  H    Isotropic =    30.8113   Anisotropy =     4.7993

     21  H    Isotropic =    30.5021   Anisotropy =     8.0952

     22  H    Isotropic =    30.4258   Anisotropy =     9.0664

     23  H    Isotropic =    30.4843   Anisotropy =     8.8769

     24  H    Isotropic =    30.2016   Anisotropy =     4.2791

     25  H    Isotropic =    30.9774   Anisotropy =     8.5853

     26  H    Isotropic =    30.6575   Anisotropy =     5.7500

     27  H    Isotropic =    30.7814   Anisotropy =     7.4642

     28  H    Isotropic =    30.3254   Anisotropy =     9.8495

     29  H    Isotropic =    30.7140   Anisotropy =     8.5295

     30  H    Isotropic =    31.3597   Anisotropy =     8.1190

     31  H    Isotropic =    30.8687   Anisotropy =    11.2061

     32  H    Isotropic =    30.8031   Anisotropy =     6.5521

 The electronic state is 1-A.
 Alpha  occ. eigenvalues --  -19.67439 -19.62140 -10.67943 -10.55441 -10.53698
 Alpha  occ. eigenvalues --  -10.53378 -10.53128 -10.53050 -10.52937 -10.52790
 Alpha  occ. eigenvalues --  -10.52748 -10.52166  -1.23512  -1.14007  -0.92167
 Alpha  occ. eigenvalues --   -0.90108  -0.86907  -0.82657  -0.78379  -0.74141
 Alpha  occ. eigenvalues --   -0.70558  -0.67227  -0.65351  -0.62882  -0.58325
 Alpha  occ. eigenvalues --   -0.57650  -0.56237  -0.54068  -0.53606  -0.51302
 Alpha  occ. eigenvalues --   -0.50670  -0.49767  -0.48587  -0.47062  -0.46266
 Alpha  occ. eigenvalues --   -0.45292  -0.43974  -0.42246  -0.42000  -0.41042
 Alpha  occ. eigenvalues --   -0.40126  -0.39327  -0.39155  -0.38543  -0.37080
 Alpha  occ. eigenvalues --   -0.36574  -0.36491  -0.35996
 Alpha virt. eigenvalues --    0.04574   0.05621   0.06607   0.07587   0.07860
 Alpha virt. eigenvalues --    0.08110   0.09568   0.10741   0.11117   0.12597
 Alpha virt. eigenvalues --    0.13269   0.13789   0.14352   0.14645   0.15116

 Mulliken charges:
               1
     1  O   -0.412604
     2  C    0.351714
     3  C   -0.342024
     4  C   -0.273240
     5  C   -0.296956
     6  C   -0.329759
     7  C   -0.278699
     8  C   -0.333102
     9  C   -0.295120
    10  C   -0.237991
    11  C   -0.446106
    12  O   -0.333346
    13  H    0.335633
    14  H    0.171021
    15  H    0.169814
    16  H    0.162881
    17  H    0.160872
    18  H    0.154459
    19  H    0.155094
    20  H    0.165144
    21  H    0.148637
    22  H    0.150982
    23  H    0.148845
    24  H    0.161749
    25  H    0.150143
    26  H    0.150500
    27  H    0.145456
    28  H    0.135683
    29  H    0.134961
    30  H    0.137570
    31  H    0.144296
    32  H    0.143495
 Sum of Mulliken charges =  -0.00000

 Dipole moment (field-independent basis, Debye):
    X=             -0.5425    Y=             -1.5737    Z=              0.2053  Tot=              1.6772
 Quadrupole moment (field-independent basis, Debye-Ang):
   XX=            -74.1542   YY=            -83.2030   ZZ=            -76.7735
   XY=             -4.8590   XZ=              0.5265   YZ=              0.4440

 1\1\GINC-NOTCH075\SP\RM062X\def2TZVP\C10H20O2\U6032257\03-Feb-2022\0\\
 # M062X/def2tzvp int=(grid=ultrafine) nmr=giao guess=read geom=check\\
 Ac1.xyz\\0,1\O,0,5.7243810153,-0.3585896265,1.2920539583\C,0,5.1164373
 444,-0.1102054076,0.1038611954\C,0,4.194771009,-1.239177894,-0.2926173
 149\C,0,3.5218040425,-1.0093953519,-1.6453666483\C,0,2.5081099394,-2.0
 974852291,-2.0196975649\C,0,3.1261407272,-3.4811996182,-2.2507333706\C
 ,0,2.1048185258,-4.5721771036,-2.6079611449\C,0,1.2658700366,-4.300241
 4234,-3.8654129454\C,0,2.0964046288,-4.1088580224,-5.139295651\C,0,1.2

 Normal termination of Gaussian 16 at Thu Feb  3 09:38:17 2022.
