 Gaussian 16, Revision C.01,

 ----------------------------------------------------------------------
 # B3LYP/6-31G(d,p) empiricaldispersion=GD3BJ int=(grid=ultrafine) opt
 freq=noraman
 ----------------------------------------------------------------------

 -------
 Ac1.xyz
 -------
 Symbolic Z-matrix:
 Charge =  0 Multiplicity = 1

 SCF Done:  E(RB3LYP) =  -543.665758944     A.U. after   13 cycles
 SCF Done:  E(RB3LYP) =  -543.667999027     A.U. after   12 cycles
 SCF Done:  E(RB3LYP) =  -543.667194819     A.U. after   11 cycles
 SCF Done:  E(RB3LYP) =  -543.668185973     A.U. after   11 cycles
 SCF Done:  E(RB3LYP) =  -543.668194644     A.U. after    9 cycles
 SCF Done:  E(RB3LYP) =  -543.668195904     A.U. after    8 cycles
 SCF Done:  E(RB3LYP) =  -543.668196343     A.U. after    7 cycles
 SCF Done:  E(RB3LYP) =  -543.668197536     A.U. after    8 cycles
 SCF Done:  E(RB3LYP) =  -543.668198591     A.U. after    9 cycles
 SCF Done:  E(RB3LYP) =  -543.668199288     A.U. after    9 cycles
 SCF Done:  E(RB3LYP) =  -543.668199508     A.U. after    7 cycles
 SCF Done:  E(RB3LYP) =  -543.668199518     A.U. after    7 cycles
 Optimization completed.
    -- Stationary point found.
 Normal termination of Gaussian 16 at Thu Feb  3 08:35:39 2022.

 ----------------------------------------------------------------------
 #N Geom=AllCheck Guess=TCheck SCRF=Check GenChk RB3LYP/6-31G(d,p) Freq
 ----------------------------------------------------------------------

 Structure from the checkpoint file:  "Ac1_clust-24.chk"
 -------
 Ac1.xyz
 -------
 Charge =  0 Multiplicity = 1

 SCF Done:  E(RB3LYP) =  -543.668199518     A.U. after    1 cycles

                      1                      2                      3
                      A                      A                      A
 Frequencies --     18.6002                30.0737                34.1285
 Red. masses --      9.9164                 3.7315                 3.6558
 Frc consts  --      0.0020                 0.0020                 0.0025
 IR Inten    --      1.2252                 0.3264                 0.0819

                      4                      5                      6
                      A                      A                      A
 Frequencies --     44.9300                83.5025               106.2713
 Red. masses --      1.9004                 3.3556                 2.1868
 Frc consts  --      0.0023                 0.0138                 0.0146
 IR Inten    --      0.0324                 0.0187                 0.0087

                      7                      8                      9
                      A                      A                      A
 Frequencies --    108.6703               136.4994               160.6590
 Red. masses --      2.2875                 1.8636                 2.9098
 Frc consts  --      0.0159                 0.0205                 0.0443
 IR Inten    --      0.0264                 0.0099                 0.0358

                     10                     11                     12
                      A                      A                      A
 Frequencies --    194.3569               239.4237               251.4572
 Red. masses --      2.2359                 3.2267                 1.1328
 Frc consts  --      0.0498                 0.1090                 0.0422
 IR Inten    --      0.0548                 0.0962                 0.0033

                     13                     14                     15
                      A                      A                      A
 Frequencies --    269.1768               339.3669               394.1789
 Red. masses --      2.2432                 2.9388                 2.4480
 Frc consts  --      0.0958                 0.1994                 0.2241
 IR Inten    --      0.1256                 0.0517                 1.5125

                     16                     17                     18
                      A                      A                      A
 Frequencies --    411.9030               459.8749               516.4117
 Red. masses --      3.2037                 2.9452                 2.5352
 Frc consts  --      0.3203                 0.3670                 0.3983
 IR Inten    --      0.0806                 3.6028                 0.9250

                     19                     20                     21
                      A                      A                      A
 Frequencies --    565.9673               622.8990               709.0484
 Red. masses --      3.6610                 1.3928                 1.6049
 Frc consts  --      0.6909                 0.3184                 0.4754
 IR Inten    --     36.5666                63.1061                52.0316

                     22                     23                     24
                      A                      A                      A
 Frequencies --    736.3459               747.0443               764.2151
 Red. masses --      1.1315                 1.2430                 1.2123
 Frc consts  --      0.3615                 0.4087                 0.4172
 IR Inten    --      5.8206                 9.3307                 7.1059

                     25                     26                     27
                      A                      A                      A
 Frequencies --    802.0277               838.0495               874.2344
 Red. masses --      1.7938                 1.3907                 2.5112
 Frc consts  --      0.6798                 0.5755                 1.1308
 IR Inten    --      5.8719                 0.1062                 7.0816

                     28                     29                     30
                      A                      A                      A
 Frequencies --    894.0178               902.9903               944.5352
 Red. masses --      1.7167                 1.8521                 1.8099
 Frc consts  --      0.8084                 0.8898                 0.9513
 IR Inten    --      4.0547                 2.2030                 1.9280

                     31                     32                     33
                      A                      A                      A
 Frequencies --    971.8838              1001.8351              1032.9615
 Red. masses --      1.6777                 1.9596                 3.1428
 Frc consts  --      0.9337                 1.1588                 1.9758
 IR Inten    --      5.5871                 0.2920                 0.4817

                     34                     35                     36
                      A                      A                      A
 Frequencies --   1040.7831              1059.4657              1072.9631
 Red. masses --      1.5867                 2.0704                 2.3775
 Frc consts  --      1.0127                 1.3692                 1.6127
 IR Inten    --      8.3859                24.6646                 0.3406

                     37                     38                     39
                      A                      A                      A
 Frequencies --   1088.0377              1094.0079              1111.7228
 Red. masses --      2.1863                 2.0718                 1.5383
 Frc consts  --      1.5249                 1.4609                 1.1202
 IR Inten    --      4.8416                 1.7557                65.6906

                     40                     41                     42
                      A                      A                      A
 Frequencies --   1143.1719              1199.6277              1215.7993
 Red. masses --      2.2138                 2.0484                 1.5149
 Frc consts  --      1.7046                 1.7368                 1.3194
 IR Inten    --      0.8332                43.5559                34.8993

                     43                     44                     45
                      A                      A                      A
 Frequencies --   1231.3102              1248.1818              1276.1094
 Red. masses --      1.4673                 1.4210                 1.3373
 Frc consts  --      1.3107                 1.3043                 1.2831
 IR Inten    --     36.1395                16.2278                 2.3090

                     46                     47                     48
                      A                      A                      A
 Frequencies --   1294.7079              1310.6950              1321.2546
 Red. masses --      1.3051                 1.3086                 1.2450
 Frc consts  --      1.2890                 1.3246                 1.2805
 IR Inten    --      1.1209                 1.6144                 3.1870

                     49                     50                     51
                      A                      A                      A
 Frequencies --   1338.2009              1341.9736              1342.6696
 Red. masses --      1.0723                 1.2466                 1.1363
 Frc consts  --      1.1313                 1.3227                 1.2069
 IR Inten    --      1.2827                 7.0691                 1.4036

                     52                     53                     54
                      A                      A                      A
 Frequencies --   1355.3727              1360.6277              1379.6737
 Red. masses --      1.3712                 1.1883                 1.6105
 Frc consts  --      1.4841                 1.2962                 1.8062
 IR Inten    --     12.3654                 0.3074                10.3156

                     55                     56                     57
                      A                      A                      A
 Frequencies --   1400.2853              1406.2633              1419.8336
 Red. masses --      1.6909                 1.4883                 1.6274
 Frc consts  --      1.9535                 1.7340                 1.9329
 IR Inten    --     15.3869                 3.9329                 1.0954

                     58                     59                     60
                      A                      A                      A
 Frequencies --   1424.9872              1428.6003              1484.6176
 Red. masses --      1.6180                 1.2731                 1.0908
 Frc consts  --      1.9357                 1.5308                 1.4165
 IR Inten    --      8.8452                 2.1803                 8.7445

                     61                     62                     63
                      A                      A                      A
 Frequencies --   1496.3649              1498.7120              1500.5704
 Red. masses --      1.0772                 1.0816                 1.0716
 Frc consts  --      1.4211                 1.4314                 1.4217
 IR Inten    --      1.5402                 0.6464                 0.1056

                     64                     65                     66
                      A                      A                      A
 Frequencies --   1502.6931              1507.1976              1514.4186
 Red. masses --      1.0912                 1.0748                 1.0401
 Frc consts  --      1.4518                 1.4385                 1.4054
 IR Inten    --      1.3463                 0.2733                 5.4454

                     67                     68                     69
                      A                      A                      A
 Frequencies --   1517.2038              1518.9224              1527.5133
 Red. masses --      1.0974                 1.0828                 1.0917
 Frc consts  --      1.4883                 1.4719                 1.5007
 IR Inten    --      1.1842                 1.6271                 3.1164

                     70                     71                     72
                      A                      A                      A
 Frequencies --   1849.1860              3011.1445              3012.2748
 Red. masses --      9.6312                 1.0587                 1.0600
 Frc consts  --     19.4041                 5.6559                 5.6671
 IR Inten    --    258.3501                 1.8473                 1.9287

                     73                     74                     75
                      A                      A                      A
 Frequencies --   3017.0275              3020.9251              3025.5379
 Red. masses --      1.0633                 1.0622                 1.0631
 Frc consts  --      5.7026                 5.7112                 5.7336
 IR Inten    --      9.6236                10.8523                26.3759

                     76                     77                     78
                      A                      A                      A
 Frequencies --   3027.2884              3037.7537              3038.1429
 Red. masses --      1.0628                 1.0652                 1.0659
 Frc consts  --      5.7388                 5.7913                 5.7969
 IR Inten    --     85.5323                13.8709                35.4493

                     79                     80                     81
                      A                      A                      A
 Frequencies --   3043.9338              3047.6361              3049.7140
 Red. masses --      1.0683                 1.0965                 1.0954
 Frc consts  --      5.8317                 6.0004                 6.0026
 IR Inten    --     26.4967                15.2499                11.2192

                     82                     83                     84
                      A                      A                      A
 Frequencies --   3059.3932              3061.4423              3072.3849
 Red. masses --      1.0648                 1.1034                 1.0998
 Frc consts  --      5.8718                 6.0931                 6.1168
 IR Inten    --     19.6886                 0.9988                37.0675

                     85                     86                     87
                      A                      A                      A
 Frequencies --   3078.4324              3095.2352              3106.2787
 Red. masses --      1.1032                 1.1042                 1.1028
 Frc consts  --      6.1600                 6.2330                 6.2693
 IR Inten    --    107.9383                48.9053                65.7027

                     88                     89                     90
                      A                      A                      A
 Frequencies --   3112.0889              3129.1208              3754.5769
 Red. masses --      1.1020                 1.0994                 1.0641
 Frc consts  --      6.2881                 6.3421                 8.8384
 IR Inten    --     41.2429                19.4155                46.6230

 - Thermochemistry -
 -------------------
 Temperature   298.150 Kelvin.  Pressure   1.00000 Atm.
 Atom     1 has atomic number  8 and mass  15.99491

 Molecular mass:   172.14633 amu.
 Principal axes and moments of inertia in atomic units:
                           1         2         3
     Eigenvalues --  1327.533636330.492127206.58368
           X            0.99978  -0.02097  -0.00089
           Y            0.02096   0.99972  -0.01134
           Z            0.00113   0.01132   0.99994
 This molecule is an asymmetric top.
 Rotational symmetry number  1.
 Warning -- assumption of classical behavior for rotation
           may cause significant error
 Rotational temperatures (Kelvin)      0.06524     0.01368     0.01202
 Rotational constants (GHZ):           1.35947     0.28509     0.25043
 Zero-point vibrational energy     764602.8 (Joules/Mol)
                                  182.74444 (Kcal/Mol)
 Warning -- explicit consideration of  19 degrees of freedom as
           vibrations may cause significant error
 Vibrational temperatures:     26.76    43.27    49.10    64.64   120.14
          (Kelvin)            152.90   156.35   196.39   231.15   279.64
                              344.48   361.79   387.29   488.27   567.14
                              592.64   661.66   743.00   814.30   896.21
                             1020.16  1059.44  1074.83  1099.54  1153.94
                             1205.77  1257.83  1286.29  1299.20  1358.98
                             1398.32  1441.42  1486.20  1497.45  1524.33
                             1543.75  1565.44  1574.03  1599.52  1644.77
                             1726.00  1749.26  1771.58  1795.86  1836.04
                             1862.80  1885.80  1900.99  1925.37  1930.80
                             1931.80  1950.08  1957.64  1985.04  2014.70
                             2023.30  2042.82  2050.24  2055.44  2136.03
                             2152.94  2156.31  2158.99  2162.04  2168.52
                             2178.91  2182.92  2185.39  2197.75  2660.57
                             4332.37  4333.99  4340.83  4346.44  4353.07
                             4355.59  4370.65  4371.21  4379.54  4384.87
                             4387.86  4401.78  4404.73  4420.48  4429.18
                             4453.35  4469.24  4477.60  4502.11  5402.00

 Zero-point correction=                           0.291222 (Hartree/Particle)
 Thermal correction to Energy=                    0.306136
 Thermal correction to Enthalpy=                  0.307080
 Thermal correction to Gibbs Free Energy=         0.245829
 Sum of electronic and zero-point Energies=           -543.376978
 Sum of electronic and thermal Energies=              -543.362064
 Sum of electronic and thermal Enthalpies=            -543.361119
 Sum of electronic and thermal Free Energies=         -543.422370

                     E (Thermal)             CV                S
                      KCal/Mol        Cal/Mol-Kelvin    Cal/Mol-Kelvin
 Total                  192.103             52.605            128.913
 Electronic               0.000              0.000              0.000
 Translational            0.889              2.981             41.337
 Rotational               0.889              2.981             32.471
 Vibrational            190.326             46.643             55.105
 Vibration     1          0.593              1.986              6.778
 Vibration     2          0.594              1.984              5.825
 Vibration     3          0.594              1.983              5.574
 Vibration     4          0.595              1.979              5.029
 Vibration     5          0.600              1.961              3.807
 Vibration     6          0.605              1.944              3.336
 Vibration     7          0.606              1.942              3.293
 Vibration     8          0.614              1.917              2.852
 Vibration     9          0.622              1.891              2.542
 Vibration    10          0.635              1.848              2.186
 Vibration    11          0.657              1.780              1.807
 Vibration    12          0.663              1.760              1.720
 Vibration    13          0.674              1.730              1.601
 Vibration    14          0.719              1.597              1.215
 Vibration    15          0.761              1.483              0.984
 Vibration    16          0.776              1.444              0.920
 Vibration    17          0.818              1.339              0.766
 Vibration    18          0.871              1.214              0.618
 Vibration    19          0.922              1.105              0.512

 Optimization completed.
    -- Stationary point found.
 Normal termination of Gaussian 16 at Thu Feb  3 08:36:57 2022.

 ----------------------------------------------------------------------
 # M062X/def2tzvp int=(grid=ultrafine) pop=nbo7 polar prop=efg volume g
 uess=read geom=check
 ----------------------------------------------------------------------

 -------
 Ac1.xyz
 -------
 Structure from the checkpoint file:  "Ac1_clust-24.chk"
 Charge =  0 Multiplicity = 1

 SCF Done:  E(RM062X) =  -543.543285386     A.U. after   11 cycles

  Exact polarizability:     142.990      -4.859     124.997      -0.321       0.987     110.655
 Approx polarizability:     138.965      -1.191     147.768      -0.657       3.699     148.158

 Summary of Natural Population Analysis:

                                     Natural Population
             Natural    ---------------------------------------------
  Atom No    Charge        Core      Valence    Rydberg      Total
 --------------------------------------------------------------------
    O  1   -0.69753      2.00000     6.67535    0.02218     8.69753
    C  2    0.79501      1.99999     3.16694    0.03806     5.20499
    C  3   -0.50628      1.99999     4.49323    0.01306     6.50628
    C  4   -0.38289      1.99999     4.37204    0.01086     6.38289
    C  5   -0.40267      1.99999     4.39106    0.01161     6.40267
    C  6   -0.38570      1.99999     4.37481    0.01089     6.38570
    C  7   -0.38584      1.99999     4.37504    0.01080     6.38584
    C  8   -0.39424      1.99999     4.38315    0.01110     6.39424
    C  9   -0.38738      1.99999     4.37612    0.01127     6.38738
    C 10   -0.39006      1.99999     4.37992    0.01015     6.39006
    C 11   -0.60089      1.99999     4.59240    0.00850     6.60089
    O 12   -0.59189      2.00000     6.56552    0.02638     8.59189
    H 13    0.49426      0.00000     0.50229    0.00346     0.50574
    H 14    0.23614      0.00000     0.76258    0.00128     0.76386
    H 15    0.22827      0.00000     0.77027    0.00146     0.77173
    H 16    0.20504      0.00000     0.79322    0.00174     0.79496
    H 17    0.21178      0.00000     0.78642    0.00180     0.78822
    H 18    0.19978      0.00000     0.79821    0.00202     0.80022
    H 19    0.19788      0.00000     0.80017    0.00195     0.80212
    H 20    0.19913      0.00000     0.79919    0.00168     0.80087
    H 21    0.19440      0.00000     0.80366    0.00194     0.80560
    H 22    0.19348      0.00000     0.80461    0.00191     0.80652
    H 23    0.20008      0.00000     0.79826    0.00166     0.79992
    H 24    0.19615      0.00000     0.80204    0.00182     0.80385
    H 25    0.19288      0.00000     0.80515    0.00197     0.80712
    H 26    0.19316      0.00000     0.80489    0.00195     0.80684
    H 27    0.19177      0.00000     0.80624    0.00199     0.80823
    H 28    0.19314      0.00000     0.80507    0.00179     0.80686
    H 29    0.19443      0.00000     0.80379    0.00178     0.80557
    H 30    0.20051      0.00000     0.79823    0.00126     0.79949
    H 31    0.19997      0.00000     0.79876    0.00127     0.80003
    H 32    0.20810      0.00000     0.79094    0.00096     0.79190
 ====================================================================
 * Total *  0.00000     23.99992    71.77953    0.22055    96.00000

 1\1\GINC-NOTCH075\SP\RM062X\def2TZVP\C10H20O2\U6032257\03-Feb-2022\0\\
 # M062X/def2tzvp int=(grid=ultrafine) pop=nbo7 polar prop=efg volume g
 uess=read geom=check\\Ac1.xyz\\0,1\O,0,4.7041441614,0.4033778145,-0.40
 67436988\C,0,5.3640138306,-0.7661524949,-0.1969722192\C,0,4.6601839045
 ,-1.6316093418,0.8225413633\C,0,3.1943905636,-1.9201974553,0.458302002
 5\C,0,3.0377156715,-2.6410718272,-0.8830966658\C,0,1.5760517601,-2.946
 4968232,-1.2242985789\C,0,1.3838140163,-3.7324144046,-2.5278388076\C,0
 ,1.8322712785,-2.9867313334,-3.7890940678\C,0,1.5421758782,-3.75856798

 Normal termination of Gaussian 16 at Thu Feb  3 08:40:00 2022.
 Gaussian 16:  ES64L-G16RevC.01  3-Jul-2019

 --------------------------------------------------------------------
 # M062X/def2tzvp int=(grid=ultrafine) nmr=giao guess=read geom=check
 --------------------------------------------------------------------

 -------
 Ac1.xyz
 -------
 Structure from the checkpoint file:  "Ac1_clust-24.chk"
 Charge =  0 Multiplicity = 1

                         Standard orientation:
 ---------------------------------------------------------------------
 Center     Atomic      Atomic             Coordinates (Angstroms)
 Number     Number       Type             X           Y           Z
 ---------------------------------------------------------------------
      1          8           0       -3.294621   -1.316467    1.224253
      2          6           0       -3.347228   -1.130303   -0.121038
      3          6           0       -3.596975    0.316981   -0.477121
      4          6           0       -2.565266    1.275693    0.140091
      5          6           0       -1.128900    0.978129   -0.297934
      6          6           0       -0.112356    1.954268    0.302028
      7          6           0        1.330170    1.732058   -0.170814
      8          6           0        1.932537    0.385663    0.244271
      9          6           0        3.400596    0.233153   -0.161832
     10          6           0        4.007874   -1.113039    0.242780
     11          6           0        5.475254   -1.255982   -0.166072
     12          8           0       -3.204378   -2.043132   -0.903555
     13          1           0       -3.126887   -2.265050    1.353396
     14          1           0       -4.601824    0.579041   -0.125165
     15          1           0       -3.593102    0.380308   -1.567721
     16          1           0       -2.832726    2.300585   -0.144259
     17          1           0       -2.635699    1.222565    1.232009
     18          1           0       -0.871512   -0.048300   -0.009997
     19          1           0       -1.065932    1.012353   -1.394527
     20          1           0       -0.415969    2.979585    0.052118
     21          1           0       -0.149780    1.884419    1.398201
     22          1           0        1.371214    1.824479   -1.265207
     23          1           0        1.961107    2.538546    0.225393
     24          1           0        1.354213   -0.435753   -0.197357
     25          1           0        1.842396    0.270124    1.333942
     26          1           0        3.491361    0.358877   -1.250033
     27          1           0        3.989066    1.046272    0.286304
     28          1           0        3.914718   -1.238542    1.329894
     29          1           0        3.419628   -1.923730   -0.207498
     30          1           0        5.592102   -1.166601   -1.251913
     31          1           0        6.091010   -0.476350    0.296311
     32          1           0        5.884369   -2.225764    0.134365
 ---------------------------------------------------------------------

 SCF Done:  E(RM062X) =  -543.543285386     A.U. after    1 cycles

      1  O    Isotropic =   106.4313   Anisotropy =   231.9777

      2  C    Isotropic =    -8.7260   Anisotropy =   129.4172

      3  C    Isotropic =   146.4858   Anisotropy =    28.3343

      4  C    Isotropic =   155.8399   Anisotropy =    23.0815

      5  C    Isotropic =   154.9565   Anisotropy =    26.5929

      6  C    Isotropic =   152.0921   Anisotropy =    25.2677

      7  C    Isotropic =   152.1081   Anisotropy =    25.2867

      8  C    Isotropic =   152.4831   Anisotropy =    30.4629

      9  C    Isotropic =   148.3000   Anisotropy =    39.6560

     10  C    Isotropic =   158.6211   Anisotropy =    23.9958

     11  C    Isotropic =   170.1503   Anisotropy =    28.2841

     12  O    Isotropic =  -181.8678   Anisotropy =   629.6204

     13  H    Isotropic =    25.8309   Anisotropy =    10.6810

     14  H    Isotropic =    29.4225   Anisotropy =     8.1286

     15  H    Isotropic =    29.7328   Anisotropy =     6.2396

     16  H    Isotropic =    30.5295   Anisotropy =     7.3910

     17  H    Isotropic =    30.0813   Anisotropy =     6.2071

     18  H    Isotropic =    30.4008   Anisotropy =     6.5680

     19  H    Isotropic =    31.0585   Anisotropy =     5.4616

     20  H    Isotropic =    30.4859   Anisotropy =     7.4565

     21  H    Isotropic =    30.7157   Anisotropy =     5.7299

     22  H    Isotropic =    30.7083   Anisotropy =     5.7759

     23  H    Isotropic =    30.4599   Anisotropy =     7.4553

     24  H    Isotropic =    30.4410   Anisotropy =     6.8908

     25  H    Isotropic =    31.0163   Anisotropy =     4.6098

     26  H    Isotropic =    30.7749   Anisotropy =     4.8366

     27  H    Isotropic =    30.7608   Anisotropy =     5.2192

     28  H    Isotropic =    30.6505   Anisotropy =     6.4172

     29  H    Isotropic =    30.6259   Anisotropy =     6.4105

     30  H    Isotropic =    31.0457   Anisotropy =     8.5470

     31  H    Isotropic =    31.0589   Anisotropy =     8.7144

     32  H    Isotropic =    30.7712   Anisotropy =    10.9170

 The electronic state is 1-A.
 Alpha  occ. eigenvalues --  -19.67502 -19.62065 -10.67872 -10.55412 -10.54394
 Alpha  occ. eigenvalues --  -10.53364 -10.53161 -10.52911 -10.52760 -10.52688
 Alpha  occ. eigenvalues --  -10.52627 -10.52063  -1.23503  -1.13941  -0.92163
 Alpha  occ. eigenvalues --   -0.90173  -0.87154  -0.82827  -0.78153  -0.72949
 Alpha  occ. eigenvalues --   -0.70081  -0.67408  -0.65902  -0.64875  -0.58200
 Alpha  occ. eigenvalues --   -0.57053  -0.54923  -0.54440  -0.54079  -0.51314
 Alpha  occ. eigenvalues --   -0.50086  -0.48930  -0.48501  -0.47186  -0.46524
 Alpha  occ. eigenvalues --   -0.45081  -0.44261  -0.42985  -0.41612  -0.40609
 Alpha  occ. eigenvalues --   -0.40275  -0.39460  -0.39144  -0.38288  -0.37889
 Alpha  occ. eigenvalues --   -0.37167  -0.36118  -0.35472
 Alpha virt. eigenvalues --    0.04254   0.05700   0.06752   0.07665   0.08724
 Alpha virt. eigenvalues --    0.08934   0.09651   0.10411   0.11410   0.12208
 Alpha virt. eigenvalues --    0.13083   0.14246   0.14547   0.14971   0.15105

 Mulliken charges:
               1
     1  O   -0.409370
     2  C    0.314186
     3  C   -0.289809
     4  C   -0.278464
     5  C   -0.330440
     6  C   -0.272300
     7  C   -0.272237
     8  C   -0.304627
     9  C   -0.278081
    10  C   -0.235857
    11  C   -0.427833
    12  O   -0.327062
    13  H    0.336101
    14  H    0.165976
    15  H    0.165292
    16  H    0.147455
    17  H    0.166373
    18  H    0.164599
    19  H    0.148266
    20  H    0.143901
    21  H    0.151196
    22  H    0.149297
    23  H    0.143931
    24  H    0.145178
    25  H    0.140093
    26  H    0.135747
    27  H    0.135411
    28  H    0.128294
    29  H    0.131286
    30  H    0.136596
    31  H    0.135430
    32  H    0.141474
 Sum of Mulliken charges =  -0.00000

 Dipole moment (field-independent basis, Debye):
    X=              0.0968    Y=              1.4409    Z=              1.2123  Tot=              1.8856
 Quadrupole moment (field-independent basis, Debye-Ang):
   XX=            -77.7005   YY=            -78.2202   ZZ=            -78.7939
   XY=             -4.8211   XZ=             -2.8338   YZ=             -6.0254

 1\1\GINC-NOTCH075\SP\RM062X\def2TZVP\C10H20O2\U6032257\03-Feb-2022\0\\
 # M062X/def2tzvp int=(grid=ultrafine) nmr=giao guess=read geom=check\\
 Ac1.xyz\\0,1\O,0,4.7041441614,0.4033778145,-0.4067436988\C,0,5.3640138
 306,-0.7661524949,-0.1969722192\C,0,4.6601839045,-1.6316093418,0.82254
 13633\C,0,3.1943905636,-1.9201974553,0.4583020025\C,0,3.0377156715,-2.
 6410718272,-0.8830966658\C,0,1.5760517601,-2.9464968232,-1.2242985789\
 C,0,1.3838140163,-3.7324144046,-2.5278388076\C,0,1.8322712785,-2.98673
 13334,-3.7890940678\C,0,1.5421758782,-3.7585679883,-5.078857288\C,0,1.

 Normal termination of Gaussian 16 at Thu Feb  3 08:41:17 2022.
