 Gaussian 16, Revision C.01,

 ----------------------------------------------------------------------
 # B3LYP/6-31G(d,p) empiricaldispersion=GD3BJ int=(grid=ultrafine) opt
 freq=noraman
 ----------------------------------------------------------------------

 -------
 Ac1.xyz
 -------
 Symbolic Z-matrix:
 Charge =  0 Multiplicity = 1

 SCF Done:  E(RB3LYP) =  -543.664878077     A.U. after   13 cycles
 SCF Done:  E(RB3LYP) =  -543.666621166     A.U. after   12 cycles
 SCF Done:  E(RB3LYP) =  -543.665514551     A.U. after   12 cycles
 SCF Done:  E(RB3LYP) =  -543.666884831     A.U. after   10 cycles
 SCF Done:  E(RB3LYP) =  -543.666892060     A.U. after    9 cycles
 SCF Done:  E(RB3LYP) =  -543.666893209     A.U. after    8 cycles
 SCF Done:  E(RB3LYP) =  -543.666893340     A.U. after    6 cycles
 Optimization completed.
    -- Stationary point found.
 Normal termination of Gaussian 16 at Thu Feb  3 09:57:10 2022.

 ----------------------------------------------------------------------
 #N Geom=AllCheck Guess=TCheck SCRF=Check GenChk RB3LYP/6-31G(d,p) Freq
 ----------------------------------------------------------------------

 Structure from the checkpoint file:  "Ac1_clust-33.chk"
 -------
 Ac1.xyz
 -------
 Charge =  0 Multiplicity = 1

 SCF Done:  E(RB3LYP) =  -543.666893340     A.U. after    1 cycles

                      1                      2                      3
                      A                      A                      A
 Frequencies --     19.2917                24.6738                49.0746
 Red. masses --      6.1049                 4.8573                 2.6155
 Frc consts  --      0.0013                 0.0017                 0.0037
 IR Inten    --      1.0859                 0.4410                 0.1641

                      4                      5                      6
                      A                      A                      A
 Frequencies --     57.4810                71.5762                87.1141
 Red. masses --      1.9087                 3.5677                 2.3987
 Frc consts  --      0.0037                 0.0108                 0.0107
 IR Inten    --      0.0824                 0.2087                 0.0290

                      7                      8                      9
                      A                      A                      A
 Frequencies --    105.2189               139.1113               182.9643
 Red. masses --      2.1128                 2.3509                 3.6708
 Frc consts  --      0.0138                 0.0268                 0.0724
 IR Inten    --      0.0093                 0.0189                 0.0573

                     10                     11                     12
                      A                      A                      A
 Frequencies --    191.3854               220.7324               252.0935
 Red. masses --      2.5238                 2.0186                 1.2549
 Frc consts  --      0.0545                 0.0579                 0.0470
 IR Inten    --      0.0826                 0.0338                 0.0012

                     13                     14                     15
                      A                      A                      A
 Frequencies --    259.4602               308.9322               399.5255
 Red. masses --      2.1613                 2.8063                 2.6198
 Frc consts  --      0.0857                 0.1578                 0.2464
 IR Inten    --      0.0475                 0.3328                 0.1366

                     16                     17                     18
                      A                      A                      A
 Frequencies --    421.8387               473.4811               504.3103
 Red. masses --      2.9195                 2.7490                 2.8951
 Frc consts  --      0.3061                 0.3631                 0.4338
 IR Inten    --      3.2430                 0.8398                 0.7988

                     19                     20                     21
                      A                      A                      A
 Frequencies --    579.0148               627.2887               727.4040
 Red. masses --      2.2743                 1.6372                 1.8398
 Frc consts  --      0.4492                 0.3796                 0.5736
 IR Inten    --     47.8678                71.1398                40.0761

                     22                     23                     24
                      A                      A                      A
 Frequencies --    735.9496               746.1773               765.6774
 Red. masses --      1.2274                 1.2713                 1.2632
 Frc consts  --      0.3917                 0.4170                 0.4363
 IR Inten    --      4.7240                11.7989                 3.0522

                     25                     26                     27
                      A                      A                      A
 Frequencies --    796.2678               831.5442               891.1142
 Red. masses --      1.2174                 1.4179                 2.5759
 Frc consts  --      0.4548                 0.5777                 1.2052
 IR Inten    --      3.3865                 0.2952                 4.1631

                     28                     29                     30
                      A                      A                      A
 Frequencies --    904.2571               911.7332               929.0024
 Red. masses --      1.8373                 1.8350                 2.6108
 Frc consts  --      0.8851                 0.8987                 1.3276
 IR Inten    --      3.0289                 2.5166                 1.6524

                     31                     32                     33
                      A                      A                      A
 Frequencies --    952.6840               992.0816              1019.9852
 Red. masses --      1.7432                 1.7811                 2.0101
 Frc consts  --      0.9322                 1.0328                 1.2321
 IR Inten    --      3.1181                 2.9983                 1.6240

                     34                     35                     36
                      A                      A                      A
 Frequencies --   1054.1040              1064.3679              1077.9480
 Red. masses --      1.9740                 2.3128                 1.9577
 Frc consts  --      1.2923                 1.5438                 1.3403
 IR Inten    --      1.8186                 6.1417                26.1240

                     37                     38                     39
                      A                      A                      A
 Frequencies --   1083.0161              1095.7211              1114.7199
 Red. masses --      2.5195                 2.1049                 1.5149
 Frc consts  --      1.7411                 1.4890                 1.1091
 IR Inten    --      0.9088                 2.3152                55.1419

                     40                     41                     42
                      A                      A                      A
 Frequencies --   1147.7860              1183.6286              1220.5088
 Red. masses --      1.9030                 1.9553                 1.7222
 Frc consts  --      1.4771                 1.6140                 1.5116
 IR Inten    --      3.0051                26.2029                71.2070

                     43                     44                     45
                      A                      A                      A
 Frequencies --   1234.5446              1262.0731              1282.3592
 Red. masses --      1.4744                 1.3719                 1.3519
 Frc consts  --      1.3240                 1.2875                 1.3098
 IR Inten    --     50.7450                 8.2608                 2.9856

                     46                     47                     48
                      A                      A                      A
 Frequencies --   1292.9255              1302.5593              1323.1093
 Red. masses --      1.3265                 1.3232                 1.2162
 Frc consts  --      1.3064                 1.3227                 1.2544
 IR Inten    --      1.3573                 2.5157                 2.6368

                     49                     50                     51
                      A                      A                      A
 Frequencies --   1328.5884              1338.0154              1344.1031
 Red. masses --      1.1993                 1.1195                 1.1316
 Frc consts  --      1.2473                 1.1808                 1.2045
 IR Inten    --      1.6502                 0.5230                 1.5944

                     52                     53                     54
                      A                      A                      A
 Frequencies --   1347.1797              1384.0642              1386.0730
 Red. masses --      1.0750                 2.0825                 1.4057
 Frc consts  --      1.1495                 2.3504                 1.5912
 IR Inten    --      1.6722                61.8696                 0.9481

                     55                     56                     57
                      A                      A                      A
 Frequencies --   1392.2190              1398.9039              1418.4590
 Red. masses --      1.4456                 1.5154                 1.6177
 Frc consts  --      1.6509                 1.7472                 1.9177
 IR Inten    --      0.3110                20.3532                 2.9183

                     58                     59                     60
                      A                      A                      A
 Frequencies --   1419.7906              1428.1443              1489.4663
 Red. masses --      1.5899                 1.2542                 1.0946
 Frc consts  --      1.8883                 1.5072                 1.4308
 IR Inten    --     10.9111                 1.3812                 2.4247

                     61                     62                     63
                      A                      A                      A
 Frequencies --   1496.8043              1498.4817              1501.4045
 Red. masses --      1.0772                 1.0777                 1.0747
 Frc consts  --      1.4219                 1.4258                 1.4273
 IR Inten    --      2.3495                 1.7241                 0.9298

                     64                     65                     66
                      A                      A                      A
 Frequencies --   1503.3129              1512.7241              1514.3467
 Red. masses --      1.0796                 1.0946                 1.0510
 Frc consts  --      1.4375                 1.4758                 1.4201
 IR Inten    --      0.1127                 4.6486                 4.0078

                     67                     68                     69
                      A                      A                      A
 Frequencies --   1514.5247              1520.5755              1526.4458
 Red. masses --      1.0642                 1.0974                 1.0883
 Frc consts  --      1.4382                 1.4949                 1.4941
 IR Inten    --      2.1194                 1.9483                 2.8409

                     70                     71                     72
                      A                      A                      A
 Frequencies --   1849.4630              3011.6152              3016.5804
 Red. masses --      9.5699                 1.0600                 1.0632
 Frc consts  --     19.2862                 5.6645                 5.7000
 IR Inten    --    316.0884                 0.7947                 4.4686

                     73                     74                     75
                      A                      A                      A
 Frequencies --   3017.2242              3020.2478              3026.8926
 Red. masses --      1.0605                 1.0604                 1.0618
 Frc consts  --      5.6884                 5.6989                 5.7319
 IR Inten    --      9.5525                 6.6155                67.2451

                     76                     77                     78
                      A                      A                      A
 Frequencies --   3029.4533              3037.8118              3041.3872
 Red. masses --      1.0625                 1.0376                 1.0879
 Frc consts  --      5.7453                 5.6418                 5.9289
 IR Inten    --     62.5421                34.9539                 3.2062

                     79                     80                     81
                      A                      A                      A
 Frequencies --   3043.7089              3047.3582              3053.3409
 Red. masses --      1.0760                 1.0930                 1.1008
 Frc consts  --      5.8733                 5.9800                 6.0468
 IR Inten    --     12.8379                17.3190                 5.6908

                     82                     83                     84
                      A                      A                      A
 Frequencies --   3058.1632              3068.0893              3075.2452
 Red. masses --      1.0986                 1.0653                 1.1040
 Frc consts  --      6.0538                 5.9085                 6.1513
 IR Inten    --      8.0084                 7.7927                83.9567

                     85                     86                     87
                      A                      A                      A
 Frequencies --   3079.8460              3090.1799              3106.1729
 Red. masses --      1.1000                 1.1024                 1.1028
 Frc consts  --      6.1477                 6.2026                 6.2688
 IR Inten    --     84.0874                41.5911                66.0559

                     88                     89                     90
                      A                      A                      A
 Frequencies --   3112.3280              3131.6691              3754.2044
 Red. masses --      1.1019                 1.1035                 1.0641
 Frc consts  --      6.2889                 6.3766                 8.8364
 IR Inten    --     43.3854                20.0551                49.6869

 - Thermochemistry -
 -------------------
 Temperature   298.150 Kelvin.  Pressure   1.00000 Atm.
 Atom     1 has atomic number  8 and mass  15.99491

 Molecular mass:   172.14633 amu.
 Principal axes and moments of inertia in atomic units:
                           1         2         3
     Eigenvalues --  1119.124017446.618688142.51222
           X            0.99991  -0.01311   0.00340
           Y            0.01309   0.99991   0.00410
           Z           -0.00346  -0.00405   0.99999
 This molecule is an asymmetric top.
 Rotational symmetry number  1.
 Warning -- assumption of classical behavior for rotation
           may cause significant error
 Rotational temperatures (Kelvin)      0.07739     0.01163     0.01064
 Rotational constants (GHZ):           1.61264     0.24236     0.22164
 Zero-point vibrational energy     764727.3 (Joules/Mol)
                                  182.77422 (Kcal/Mol)
 Warning -- explicit consideration of  19 degrees of freedom as
           vibrations may cause significant error
 Vibrational temperatures:     27.76    35.50    70.61    82.70   102.98
          (Kelvin)            125.34   151.39   200.15   263.24   275.36
                              317.58   362.71   373.31   444.48   574.83
                              606.93   681.23   725.59   833.07   902.53
                             1046.57  1058.87  1073.58  1101.64  1145.65
                             1196.41  1282.11  1301.02  1311.78  1336.63
                             1370.70  1427.38  1467.53  1516.62  1531.39
                             1550.93  1558.22  1576.50  1603.83  1651.41
                             1702.98  1756.04  1776.23  1815.84  1845.03
                             1860.23  1874.09  1903.66  1911.54  1925.11
                             1933.86  1938.29  1991.36  1994.25  2003.09
                             2012.71  2040.85  2042.76  2054.78  2143.01
                             2153.57  2155.98  2160.19  2162.93  2176.47
                             2178.81  2179.06  2187.77  2196.22  2660.96
                             4333.04  4340.19  4341.11  4345.46  4355.02
                             4358.71  4370.73  4375.88  4379.22  4384.47
                             4393.08  4400.01  4414.30  4424.59  4431.21
                             4446.08  4469.09  4477.95  4505.77  5401.46

 Zero-point correction=                           0.291269 (Hartree/Particle)
 Thermal correction to Energy=                    0.306210
 Thermal correction to Enthalpy=                  0.307154
 Thermal correction to Gibbs Free Energy=         0.245914
 Sum of electronic and zero-point Energies=           -543.375624
 Sum of electronic and thermal Energies=              -543.360684
 Sum of electronic and thermal Enthalpies=            -543.359740
 Sum of electronic and thermal Free Energies=         -543.420979

                     E (Thermal)             CV                S
                      KCal/Mol        Cal/Mol-Kelvin    Cal/Mol-Kelvin
 Total                  192.149             52.603            128.889
 Electronic               0.000              0.000              0.000
 Translational            0.889              2.981             41.337
 Rotational               0.889              2.981             32.584
 Vibrational            190.372             46.641             54.968
 Vibration     1          0.593              1.986              6.706
 Vibration     2          0.593              1.985              6.217
 Vibration     3          0.595              1.978              4.854
 Vibration     4          0.596              1.975              4.542
 Vibration     5          0.598              1.968              4.110
 Vibration     6          0.601              1.958              3.724
 Vibration     7          0.605              1.945              3.355
 Vibration     8          0.615              1.914              2.816
 Vibration     9          0.630              1.863              2.298
 Vibration    10          0.634              1.852              2.214
 Vibration    11          0.647              1.810              1.953
 Vibration    12          0.664              1.759              1.716
 Vibration    13          0.668              1.747              1.665
 Vibration    14          0.698              1.657              1.368
 Vibration    15          0.766              1.471              0.964
 Vibration    16          0.784              1.423              0.886
 Vibration    17          0.830              1.309              0.728
 Vibration    18          0.860              1.240              0.647
 Vibration    19          0.936              1.077              0.487

                           ! Non-Optimized Parameters !
 Normal termination of Gaussian 16 at Thu Feb  3 09:58:29 2022.

 ----------------------------------------------------------------------
 # M062X/def2tzvp int=(grid=ultrafine) pop=nbo7 polar prop=efg volume g
 uess=read geom=check
 ----------------------------------------------------------------------

 -------
 Ac1.xyz
 -------
 Structure from the checkpoint file:  "Ac1_clust-33.chk"
 Charge =  0 Multiplicity = 1

 SCF Done:  E(RM062X) =  -543.541990750     A.U. after   11 cycles

  Exact polarizability:     152.764      -1.665     120.572      -1.374       3.056     107.953
 Approx polarizability:     150.825      -0.673     143.280      -4.192       3.710     140.836

 Summary of Natural Population Analysis:

                                     Natural Population
             Natural    ---------------------------------------------
  Atom No    Charge        Core      Valence    Rydberg      Total
 --------------------------------------------------------------------
    O  1   -0.69501      2.00000     6.67306    0.02196     8.69501
    C  2    0.79721      1.99999     3.16598    0.03681     5.20279
    C  3   -0.51071      1.99999     4.49707    0.01365     6.51071
    C  4   -0.38262      1.99999     4.37225    0.01038     6.38262
    C  5   -0.38803      1.99999     4.37697    0.01106     6.38803
    C  6   -0.40179      1.99999     4.39046    0.01134     6.40179
    C  7   -0.38520      1.99999     4.37428    0.01093     6.38520
    C  8   -0.38676      1.99999     4.37586    0.01090     6.38676
    C  9   -0.39549      1.99999     4.38410    0.01140     6.39549
    C 10   -0.38935      1.99999     4.37915    0.01021     6.38935
    C 11   -0.60114      1.99999     4.59264    0.00851     6.60114
    O 12   -0.59200      2.00000     6.56582    0.02618     8.59200
    H 13    0.49374      0.00000     0.50288    0.00338     0.50626
    H 14    0.22814      0.00000     0.77030    0.00156     0.77186
    H 15    0.22925      0.00000     0.76923    0.00153     0.77075
    H 16    0.20911      0.00000     0.78937    0.00152     0.79089
    H 17    0.21046      0.00000     0.78777    0.00177     0.78954
    H 18    0.19519      0.00000     0.80286    0.00195     0.80481
    H 19    0.20501      0.00000     0.79338    0.00161     0.79499
    H 20    0.19772      0.00000     0.80040    0.00188     0.80228
    H 21    0.19279      0.00000     0.80532    0.00190     0.80721
    H 22    0.20014      0.00000     0.79819    0.00167     0.79986
    H 23    0.19330      0.00000     0.80475    0.00195     0.80670
    H 24    0.20038      0.00000     0.79793    0.00169     0.79962
    H 25    0.19270      0.00000     0.80535    0.00194     0.80730
    H 26    0.19262      0.00000     0.80538    0.00200     0.80738
    H 27    0.19379      0.00000     0.80435    0.00186     0.80621
    H 28    0.19396      0.00000     0.80424    0.00180     0.80604
    H 29    0.19343      0.00000     0.80474    0.00183     0.80657
    H 30    0.20033      0.00000     0.79841    0.00126     0.79967
    H 31    0.20850      0.00000     0.79055    0.00095     0.79150
    H 32    0.20034      0.00000     0.79840    0.00126     0.79966
 ====================================================================
 * Total *  0.00000     23.99992    71.78147    0.21861    96.00000

 1\1\GINC-NOTCH075\SP\RM062X\def2TZVP\C10H20O2\U6032257\03-Feb-2022\0\\
 # M062X/def2tzvp int=(grid=ultrafine) pop=nbo7 polar prop=efg volume g
 uess=read geom=check\\Ac1.xyz\\0,1\O,0,5.6858809743,0.3694567406,-0.63
 50727885\C,0,5.4803323211,-0.6109173436,0.2836744144\C,0,4.4737104739,
 -1.624551076,-0.2012121981\C,0,3.0763957709,-1.0089962829,-0.403795303
 6\C,0,2.015305196,-2.0387428909,-0.8098829338\C,0,2.2636812117,-2.7036
 89083,-2.1676159009\C,0,1.1250067329,-3.6412955628,-2.5834723546\C,0,1
 .3792773774,-4.4063067907,-3.8886014705\C,0,1.4993511862,-3.5187434846

 Normal termination of Gaussian 16 at Thu Feb  3 10:01:31 2022.
 Gaussian 16:  ES64L-G16RevC.01  3-Jul-2019

 --------------------------------------------------------------------
 # M062X/def2tzvp int=(grid=ultrafine) nmr=giao guess=read geom=check
 --------------------------------------------------------------------

 -------
 Ac1.xyz
 -------
 Structure from the checkpoint file:  "Ac1_clust-33.chk"
 Charge =  0 Multiplicity = 1

                         Standard orientation:
 ---------------------------------------------------------------------
 Center     Atomic      Atomic             Coordinates (Angstroms)
 Number     Number       Type             X           Y           Z
 ---------------------------------------------------------------------
      1          8           0        3.771482    1.804863    0.466088
      2          6           0        3.989514    0.706374   -0.304148
      3          6           0        2.725404   -0.092607   -0.502926
      4          6           0        2.185313   -0.669492    0.819172
      5          6           0        0.951480   -1.560191    0.630733
      6          6           0       -0.279245   -0.831132    0.082033
      7          6           0       -1.517686   -1.731275    0.013985
      8          6           0       -2.746217   -1.070905   -0.624670
      9          6           0       -3.296777    0.130027    0.151245
     10          6           0       -4.573765    0.709628   -0.463995
     11          6           0       -5.119270    1.911948    0.308989
     12          8           0        5.084446    0.433788   -0.743789
     13          1           0        4.635064    2.242023    0.554411
     14          1           0        2.954456   -0.893063   -1.210434
     15          1           0        1.975738    0.564343   -0.956549
     16          1           0        2.980550   -1.251874    1.299522
     17          1           0        1.947889    0.157721    1.497286
     18          1           0        1.204192   -2.399094   -0.032330
     19          1           0        0.695502   -2.006532    1.600359
     20          1           0       -0.484579    0.043876    0.711924
     21          1           0       -0.070480   -0.442008   -0.923448
     22          1           0       -1.264484   -2.636428   -0.553786
     23          1           0       -1.773074   -2.070411    1.027718
     24          1           0       -3.541151   -1.821843   -0.723594
     25          1           0       -2.497480   -0.756564   -1.648196
     26          1           0       -3.497925   -0.170868    1.189528
     27          1           0       -2.538037    0.921261    0.206560
     28          1           0       -4.372589    1.000962   -1.503645
     29          1           0       -5.339747   -0.075865   -0.512515
     30          1           0       -4.385010    2.724636    0.343320
     31          1           0       -6.031191    2.306095   -0.150471
     32          1           0       -5.357568    1.640167    1.343446
 ---------------------------------------------------------------------

 SCF Done:  E(RM062X) =  -543.541990750     A.U. after    1 cycles

      1  O    Isotropic =   104.3953   Anisotropy =   231.0081

      2  C    Isotropic =    -9.4345   Anisotropy =   127.2323

      3  C    Isotropic =   147.6621   Anisotropy =    42.5184

      4  C    Isotropic =   156.0491   Anisotropy =    19.9095

      5  C    Isotropic =   152.6094   Anisotropy =    24.3573

      6  C    Isotropic =   155.6316   Anisotropy =    21.9200

      7  C    Isotropic =   152.1222   Anisotropy =    25.2931

      8  C    Isotropic =   151.7298   Anisotropy =    25.5030

      9  C    Isotropic =   150.7858   Anisotropy =    32.4301

     10  C    Isotropic =   158.3343   Anisotropy =    24.2900

     11  C    Isotropic =   170.1771   Anisotropy =    27.7118

     12  O    Isotropic =  -171.5178   Anisotropy =   616.3851

     13  H    Isotropic =    25.8644   Anisotropy =    11.2795

     14  H    Isotropic =    30.0317   Anisotropy =     6.2795

     15  H    Isotropic =    29.3621   Anisotropy =     3.5939

     16  H    Isotropic =    30.1741   Anisotropy =     8.1710

     17  H    Isotropic =    30.1171   Anisotropy =     6.3664

     18  H    Isotropic =    30.7440   Anisotropy =     6.5713

     19  H    Isotropic =    30.4285   Anisotropy =     7.0077

     20  H    Isotropic =    30.6281   Anisotropy =     6.3913

     21  H    Isotropic =    30.8269   Anisotropy =     5.8425

     22  H    Isotropic =    30.5057   Anisotropy =     7.3064

     23  H    Isotropic =    30.7003   Anisotropy =     5.9900

     24  H    Isotropic =    30.4227   Anisotropy =     7.6176

     25  H    Isotropic =    30.6947   Anisotropy =     5.6031

     26  H    Isotropic =    31.0034   Anisotropy =     4.8861

     27  H    Isotropic =    30.4346   Anisotropy =     6.2601

     28  H    Isotropic =    30.6688   Anisotropy =     6.7016

     29  H    Isotropic =    30.6516   Anisotropy =     7.1612

     30  H    Isotropic =    31.0261   Anisotropy =     8.1418

     31  H    Isotropic =    30.7508   Anisotropy =    11.0613

     32  H    Isotropic =    31.0318   Anisotropy =     8.4602

 The electronic state is 1-A.
 Alpha  occ. eigenvalues --  -19.67415 -19.61995 -10.67820 -10.55313 -10.54544
 Alpha  occ. eigenvalues --  -10.53766 -10.53344 -10.53196 -10.53013 -10.52998
 Alpha  occ. eigenvalues --  -10.52844 -10.52268  -1.23417  -1.13870  -0.92353
 Alpha  occ. eigenvalues --   -0.90344  -0.87164  -0.83145  -0.78348  -0.73613
 Alpha  occ. eigenvalues --   -0.69369  -0.67474  -0.66535  -0.64872  -0.58280
 Alpha  occ. eigenvalues --   -0.57259  -0.55614  -0.54385  -0.52974  -0.52217
 Alpha  occ. eigenvalues --   -0.49934  -0.49309  -0.48821  -0.47348  -0.46085
 Alpha  occ. eigenvalues --   -0.45708  -0.44337  -0.43324  -0.42050  -0.40778
 Alpha  occ. eigenvalues --   -0.40235  -0.39333  -0.39220  -0.38627  -0.38028
 Alpha  occ. eigenvalues --   -0.37221  -0.36728  -0.35273
 Alpha virt. eigenvalues --    0.04448   0.05961   0.06640   0.07394   0.08157
 Alpha virt. eigenvalues --    0.08669   0.09423   0.10441   0.10996   0.12345
 Alpha virt. eigenvalues --    0.13022   0.13656   0.14034   0.14538   0.15060

 Mulliken charges:
               1
     1  O   -0.411842
     2  C    0.322484
     3  C   -0.280995
     4  C   -0.306508
     5  C   -0.267129
     6  C   -0.342682
     7  C   -0.270126
     8  C   -0.274632
     9  C   -0.299387
    10  C   -0.238478
    11  C   -0.425335
    12  O   -0.331256
    13  H    0.336231
    14  H    0.161468
    15  H    0.163585
    16  H    0.156675
    17  H    0.169881
    18  H    0.155366
    19  H    0.147810
    20  H    0.154825
    21  H    0.145215
    22  H    0.143785
    23  H    0.150417
    24  H    0.143353
    25  H    0.146803
    26  H    0.137133
    27  H    0.139630
    28  H    0.129758
    29  H    0.130582
    30  H    0.135608
    31  H    0.142072
    32  H    0.135692
 Sum of Mulliken charges =  -0.00000

 Dipole moment (field-independent basis, Debye):
    X=             -1.9411    Y=              0.1730    Z=              0.8383  Tot=              2.1215
 Quadrupole moment (field-independent basis, Debye-Ang):
   XX=            -91.4924   YY=            -74.9389   ZZ=            -77.7596
   XY=              4.5134   XZ=              6.3347   YZ=              0.0470

 1\1\GINC-NOTCH075\SP\RM062X\def2TZVP\C10H20O2\U6032257\03-Feb-2022\0\\
 # M062X/def2tzvp int=(grid=ultrafine) nmr=giao guess=read geom=check\\
 Ac1.xyz\\0,1\O,0,5.6858809743,0.3694567406,-0.6350727885\C,0,5.4803323
 211,-0.6109173436,0.2836744144\C,0,4.4737104739,-1.624551076,-0.201212
 1981\C,0,3.0763957709,-1.0089962829,-0.4037953036\C,0,2.015305196,-2.0
 387428909,-0.8098829338\C,0,2.2636812117,-2.703689083,-2.1676159009\C,
 0,1.1250067329,-3.6412955628,-2.5834723546\C,0,1.3792773774,-4.4063067
 907,-3.8886014705\C,0,1.4993511862,-3.5187434846,-5.1316676967\C,0,1.6

 Normal termination of Gaussian 16 at Thu Feb  3 10:02:46 2022.
