 Gaussian 16, Revision C.01,

 ----------------------------------------------------------------------
 # B3LYP/6-31G(d,p) empiricaldispersion=GD3BJ int=(grid=ultrafine) opt
 freq=noraman
 ----------------------------------------------------------------------

 -------
 Ac1.xyz
 -------
 Symbolic Z-matrix:
 Charge =  0 Multiplicity = 1

 SCF Done:  E(RB3LYP) =  -543.665282817     A.U. after   13 cycles
 SCF Done:  E(RB3LYP) =  -543.667511755     A.U. after   12 cycles
 SCF Done:  E(RB3LYP) =  -543.666801890     A.U. after   11 cycles
 SCF Done:  E(RB3LYP) =  -543.667713473     A.U. after   11 cycles
 SCF Done:  E(RB3LYP) =  -543.667724744     A.U. after    9 cycles
 SCF Done:  E(RB3LYP) =  -543.667726787     A.U. after    8 cycles
 SCF Done:  E(RB3LYP) =  -543.667728121     A.U. after    8 cycles
 SCF Done:  E(RB3LYP) =  -543.667731000     A.U. after    9 cycles
 SCF Done:  E(RB3LYP) =  -543.667733634     A.U. after    9 cycles
 SCF Done:  E(RB3LYP) =  -543.667734528     A.U. after    9 cycles
 SCF Done:  E(RB3LYP) =  -543.667734642     A.U. after    6 cycles
 Optimization completed.
    -- Stationary point found.
 Normal termination of Gaussian 16 at Sat Feb  5 08:54:54 2022.

 ----------------------------------------------------------------------
 #N Geom=AllCheck Guess=TCheck SCRF=Check GenChk RB3LYP/6-31G(d,p) Freq
 ----------------------------------------------------------------------

 Structure from the checkpoint file:  "Ac1_clust-44.chk"
 -------
 Ac1.xyz
 -------
 Charge =  0 Multiplicity = 1

 SCF Done:  E(RB3LYP) =  -543.667734642     A.U. after    1 cycles

                      1                      2                      3
                      A                      A                      A
 Frequencies --     19.0305                22.0709                32.1239
 Red. masses --      4.8236                 8.4411                 3.6423
 Frc consts  --      0.0010                 0.0024                 0.0022
 IR Inten    --      0.4968                 0.9191                 0.0686

                      4                      5                      6
                      A                      A                      A
 Frequencies --     56.6941                81.0029               110.4333
 Red. masses --      4.6418                 1.6572                 2.8085
 Frc consts  --      0.0088                 0.0064                 0.0202
 IR Inten    --      0.0322                 0.0467                 0.0610

                      7                      8                      9
                      A                      A                      A
 Frequencies --    117.5306               125.1237               207.4014
 Red. masses --      1.7537                 3.0553                 2.0748
 Frc consts  --      0.0143                 0.0282                 0.0526
 IR Inten    --      0.0256                 0.0065                 0.0592

                     10                     11                     12
                      A                      A                      A
 Frequencies --    210.0290               244.4613               265.0998
 Red. masses --      2.4759                 1.5301                 1.6766
 Frc consts  --      0.0643                 0.0539                 0.0694
 IR Inten    --      0.0490                 0.1041                 0.0934

                     13                     14                     15
                      A                      A                      A
 Frequencies --    292.5281               345.3916               368.2271
 Red. masses --      2.1716                 2.6138                 3.2227
 Frc consts  --      0.1095                 0.1837                 0.2575
 IR Inten    --      0.0690                 0.1718                 0.5820

                     16                     17                     18
                      A                      A                      A
 Frequencies --    429.5035               468.5809               529.0293
 Red. masses --      2.4550                 2.7756                 2.3752
 Frc consts  --      0.2668                 0.3591                 0.3917
 IR Inten    --      1.7307                 2.5122                 3.4069

                     19                     20                     21
                      A                      A                      A
 Frequencies --    564.6350               623.2575               708.9097
 Red. masses --      3.7537                 1.4059                 1.6695
 Frc consts  --      0.7051                 0.3218                 0.4943
 IR Inten    --     37.1511                57.6766                53.8836

                     22                     23                     24
                      A                      A                      A
 Frequencies --    725.4256               745.8121               770.0233
 Red. masses --      1.1362                 1.2085                 1.3343
 Frc consts  --      0.3523                 0.3961                 0.4661
 IR Inten    --      6.6098                 8.3638                 7.8224

                     25                     26                     27
                      A                      A                      A
 Frequencies --    807.8616               846.6077               851.0589
 Red. masses --      1.6958                 2.1587                 2.0771
 Frc consts  --      0.6521                 0.9116                 0.8864
 IR Inten    --      6.2354                 1.8559                 1.4358

                     28                     29                     30
                      A                      A                      A
 Frequencies --    890.2794               911.4202               918.9215
 Red. masses --      1.9778                 1.5925                 1.6670
 Frc consts  --      0.9236                 0.7794                 0.8294
 IR Inten    --      5.2082                 0.1961                 8.0980

                     31                     32                     33
                      A                      A                      A
 Frequencies --    969.8906              1002.8314              1031.4173
 Red. masses --      1.5854                 2.0570                 2.1543
 Frc consts  --      0.8787                 1.2188                 1.3503
 IR Inten    --      2.3007                 1.1663                 2.6611

                     34                     35                     36
                      A                      A                      A
 Frequencies --   1048.1311              1059.5902              1064.5819
 Red. masses --      2.3428                 1.7700                 2.3142
 Frc consts  --      1.5164                 1.1708                 1.5453
 IR Inten    --      0.7661                30.0490                 1.4475

                     37                     38                     39
                      A                      A                      A
 Frequencies --   1076.3001              1106.0593              1111.8080
 Red. masses --      1.7104                 2.2040                 1.6566
 Frc consts  --      1.1674                 1.5886                 1.2065
 IR Inten    --      3.1379                 3.5817                63.9518

                     40                     41                     42
                      A                      A                      A
 Frequencies --   1148.0012              1177.6881              1210.7055
 Red. masses --      1.8516                 1.9660                 1.6713
 Frc consts  --      1.4378                 1.6066                 1.4434
 IR Inten    --      0.3909                18.7281                57.3486

                     43                     44                     45
                      A                      A                      A
 Frequencies --   1229.8939              1253.0128              1275.4657
 Red. masses --      1.4252                 1.4073                 1.3839
 Frc consts  --      1.2702                 1.3018                 1.3264
 IR Inten    --     50.0187                10.5557                 0.8887

                     46                     47                     48
                      A                      A                      A
 Frequencies --   1290.8859              1309.2987              1329.1087
 Red. masses --      1.2953                 1.2808                 1.2118
 Frc consts  --      1.2718                 1.2936                 1.2613
 IR Inten    --      0.6014                 2.3952                 0.6405

                     49                     50                     51
                      A                      A                      A
 Frequencies --   1334.7691              1339.3722              1343.2279
 Red. masses --      1.2735                 1.2555                 1.0651
 Frc consts  --      1.3367                 1.3270                 1.1322
 IR Inten    --      0.6198                 5.1472                 0.5571

                     52                     53                     54
                      A                      A                      A
 Frequencies --   1353.0707              1368.9943              1386.5141
 Red. masses --      1.2494                 1.2823                 1.9235
 Frc consts  --      1.3477                 1.4160                 2.1786
 IR Inten    --     18.6625                 0.6550                23.4921

                     55                     56                     57
                      A                      A                      A
 Frequencies --   1397.8648              1409.7127              1418.4584
 Red. masses --      1.4283                 1.5690                 1.5537
 Frc consts  --      1.6444                 1.8371                 1.8419
 IR Inten    --      8.4195                 5.2599                 2.2725

                     58                     59                     60
                      A                      A                      A
 Frequencies --   1424.4489              1427.4559              1484.0971
 Red. masses --      1.6557                 1.2475                 1.0904
 Frc consts  --      1.9793                 1.4977                 1.4151
 IR Inten    --      3.7146                 1.0177                 8.8334

                     61                     62                     63
                      A                      A                      A
 Frequencies --   1495.7063              1498.2790              1501.5551
 Red. masses --      1.0757                 1.0805                 1.0814
 Frc consts  --      1.4178                 1.4291                 1.4365
 IR Inten    --      1.4822                 1.2783                 2.8895

                     64                     65                     66
                      A                      A                      A
 Frequencies --   1505.4949              1509.1028              1511.9059
 Red. masses --      1.0744                 1.0853                 1.0888
 Frc consts  --      1.4348                 1.4562                 1.4664
 IR Inten    --      1.0776                 1.7331                 1.2866

                     67                     68                     69
                      A                      A                      A
 Frequencies --   1514.4457              1521.8043              1526.0224
 Red. masses --      1.0417                 1.0882                 1.0900
 Frc consts  --      1.4077                 1.4848                 1.4956
 IR Inten    --      6.0007                 5.6690                 0.9527

                     70                     71                     72
                      A                      A                      A
 Frequencies --   1849.4909              3015.6345              3018.3957
 Red. masses --      9.6383                 1.0601                 1.0608
 Frc consts  --     19.4246                 5.6802                 5.6943
 IR Inten    --    269.3671                 1.8117                11.3394

                     73                     74                     75
                      A                      A                      A
 Frequencies --   3020.1464              3025.5611              3029.5413
 Red. masses --      1.0597                 1.0621                 1.0626
 Frc consts  --      5.6949                 5.7286                 5.7464
 IR Inten    --      3.2414                16.3718                48.2405

                     76                     77                     78
                      A                      A                      A
 Frequencies --   3032.3582              3037.6209              3043.8444
 Red. masses --      1.0624                 1.0378                 1.0857
 Frc consts  --      5.7555                 5.6422                 5.9264
 IR Inten    --     40.0701                38.7846                27.0556

                     79                     80                     81
                      A                      A                      A
 Frequencies --   3045.0825              3049.2807              3054.2130
 Red. masses --      1.0757                 1.0987                 1.0997
 Frc consts  --      5.8768                 6.0193                 6.0439
 IR Inten    --     21.0024                 3.3325                 6.9191

                     82                     83                     84
                      A                      A                      A
 Frequencies --   3058.7812              3063.5537              3073.5807
 Red. masses --      1.0645                 1.0988                 1.1039
 Frc consts  --      5.8682                 6.0760                 6.1440
 IR Inten    --     16.9927                34.6497                78.5468

                     85                     86                     87
                      A                      A                      A
 Frequencies --   3078.2982              3094.4313              3106.0905
 Red. masses --      1.1032                 1.1039                 1.1028
 Frc consts  --      6.1594                 6.2279                 6.2686
 IR Inten    --     61.5303                53.1761                68.6871

                     88                     89                     90
                      A                      A                      A
 Frequencies --   3111.9613              3128.7063              3754.5798
 Red. masses --      1.1020                 1.0991                 1.0642
 Frc consts  --      6.2876                 6.3392                 8.8385
 IR Inten    --     40.9906                19.7257                49.2199

 - Thermochemistry -
 -------------------
 Temperature   298.150 Kelvin.  Pressure   1.00000 Atm.
 Atom     1 has atomic number  8 and mass  15.99491

 Molecular mass:   172.14633 amu.
 Principal axes and moments of inertia in atomic units:
                           1         2         3
     Eigenvalues --   871.792487120.591957421.24653
           X            0.99999  -0.00162  -0.00418
           Y            0.00158   0.99995  -0.00998
           Z            0.00420   0.00997   0.99994
 This molecule is an asymmetric top.
 Rotational symmetry number  1.
 Warning -- assumption of classical behavior for rotation
           may cause significant error
 Rotational temperatures (Kelvin)      0.09935     0.01216     0.01167
 Rotational constants (GHZ):           2.07015     0.25345     0.24319
 Zero-point vibrational energy     765290.6 (Joules/Mol)
                                  182.90885 (Kcal/Mol)
 Warning -- explicit consideration of  19 degrees of freedom as
           vibrations may cause significant error
 Vibrational temperatures:     27.38    31.76    46.22    81.57   116.55
          (Kelvin)            158.89   169.10   180.03   298.40   302.18
                              351.73   381.42   420.88   496.94   529.80
                              617.96   674.18   761.16   812.38   896.73
                             1019.96  1043.73  1073.06  1107.89  1162.33
                             1218.08  1224.48  1280.91  1311.33  1322.12
                             1395.46  1442.85  1483.98  1508.03  1524.51
                             1531.70  1548.56  1591.37  1599.64  1651.72
                             1694.43  1741.94  1769.54  1802.81  1835.11
                             1857.30  1883.79  1912.29  1920.44  1927.06
                             1932.61  1946.77  1969.68  1994.88  2011.22
                             2028.26  2040.85  2049.46  2053.79  2135.28
                             2151.99  2155.69  2160.40  2166.07  2171.26
                             2175.30  2178.95  2189.54  2195.61  2661.00
                             4338.83  4342.80  4345.32  4353.11  4358.83
                             4362.89  4370.46  4379.41  4381.19  4387.23
                             4394.33  4400.90  4407.77  4422.20  4428.98
                             4452.20  4468.97  4477.42  4501.51  5402.00

 Zero-point correction=                           0.291484 (Hartree/Particle)
 Thermal correction to Energy=                    0.306236
 Thermal correction to Enthalpy=                  0.307180
 Thermal correction to Gibbs Free Energy=         0.246378
 Sum of electronic and zero-point Energies=           -543.376251
 Sum of electronic and thermal Energies=              -543.361498
 Sum of electronic and thermal Enthalpies=            -543.360554
 Sum of electronic and thermal Free Energies=         -543.421357

                     E (Thermal)             CV                S
                      KCal/Mol        Cal/Mol-Kelvin    Cal/Mol-Kelvin
 Total                  192.166             52.470            127.970
 Electronic               0.000              0.000              0.000
 Translational            0.889              2.981             41.337
 Rotational               0.889              2.981             32.199
 Vibrational            190.389             46.508             54.434
 Vibration     1          0.593              1.986              6.733
 Vibration     2          0.593              1.985              6.439
 Vibration     3          0.594              1.983              5.694
 Vibration     4          0.596              1.975              4.569
 Vibration     5          0.600              1.962              3.866
 Vibration     6          0.606              1.941              3.261
 Vibration     7          0.608              1.935              3.141
 Vibration     8          0.610              1.928              3.020
 Vibration     9          0.641              1.829              2.066
 Vibration    10          0.642              1.825              2.043
 Vibration    11          0.660              1.772              1.770
 Vibration    12          0.671              1.737              1.628
 Vibration    13          0.688              1.688              1.459
 Vibration    14          0.724              1.585              1.187
 Vibration    15          0.741              1.538              1.087
 Vibration    16          0.791              1.406              0.860
 Vibration    17          0.826              1.320              0.742
 Vibration    18          0.884              1.186              0.589
 Vibration    19          0.920              1.108              0.515

 Optimization completed.
    -- Stationary point found.
 Normal termination of Gaussian 16 at Sat Feb  5 08:55:59 2022.

 ----------------------------------------------------------------------
 # M062X/def2tzvp int=(grid=ultrafine) pop=nbo7 polar prop=efg volume g
 uess=read geom=check
 ----------------------------------------------------------------------

 -------
 Ac1.xyz
 -------
 Structure from the checkpoint file:  "Ac1_clust-44.chk"
 Charge =  0 Multiplicity = 1

 SCF Done:  E(RM062X) =  -543.543046527     A.U. after   11 cycles

  Exact polarizability:     146.243      -4.040     118.162       3.413      -0.285     113.241
 Approx polarizability:     142.583      -3.334     142.165       4.213       0.116     150.390

 Summary of Natural Population Analysis:

                                     Natural Population
             Natural    ---------------------------------------------
  Atom No    Charge        Core      Valence    Rydberg      Total
 --------------------------------------------------------------------
    O  1   -0.69769      2.00000     6.67552    0.02217     8.69769
    C  2    0.79476      1.99999     3.16719    0.03805     5.20524
    C  3   -0.50620      1.99999     4.49314    0.01307     6.50620
    C  4   -0.38358      1.99999     4.37282    0.01077     6.38358
    C  5   -0.39483      1.99999     4.38340    0.01144     6.39483
    C  6   -0.39492      1.99999     4.38337    0.01156     6.39492
    C  7   -0.39344      1.99999     4.38231    0.01113     6.39344
    C  8   -0.38656      1.99999     4.37566    0.01091     6.38656
    C  9   -0.39561      1.99999     4.38422    0.01139     6.39561
    C 10   -0.39896      1.99999     4.38832    0.01064     6.39896
    C 11   -0.60020      1.99999     4.59162    0.00859     6.60020
    O 12   -0.59144      2.00000     6.56505    0.02639     8.59144
    H 13    0.49428      0.00000     0.50225    0.00346     0.50572
    H 14    0.23628      0.00000     0.76244    0.00128     0.76372
    H 15    0.22841      0.00000     0.77012    0.00147     0.77159
    H 16    0.20525      0.00000     0.79307    0.00168     0.79475
    H 17    0.21173      0.00000     0.78649    0.00178     0.78827
    H 18    0.19789      0.00000     0.80002    0.00209     0.80211
    H 19    0.19799      0.00000     0.80010    0.00191     0.80201
    H 20    0.19402      0.00000     0.80403    0.00194     0.80598
    H 21    0.19581      0.00000     0.80221    0.00198     0.80419
    H 22    0.20232      0.00000     0.79607    0.00161     0.79768
    H 23    0.19537      0.00000     0.80282    0.00181     0.80463
    H 24    0.19971      0.00000     0.79862    0.00167     0.80029
    H 25    0.19894      0.00000     0.79939    0.00167     0.80106
    H 26    0.19311      0.00000     0.80503    0.00186     0.80689
    H 27    0.20092      0.00000     0.79738    0.00170     0.79908
    H 28    0.19485      0.00000     0.80328    0.00187     0.80515
    H 29    0.19348      0.00000     0.80475    0.00177     0.80652
    H 30    0.19999      0.00000     0.79873    0.00128     0.80001
    H 31    0.20032      0.00000     0.79838    0.00130     0.79968
    H 32    0.20800      0.00000     0.79103    0.00098     0.79200
 ====================================================================
 * Total *  0.00000     23.99992    71.77886    0.22122    96.00000

 1\1\GINC-NOTCH209\SP\RM062X\def2TZVP\C10H20O2\U6032257\05-Feb-2022\0\\
 # M062X/def2tzvp int=(grid=ultrafine) pop=nbo7 polar prop=efg volume g
 uess=read geom=check\\Ac1.xyz\\0,1\O,0,4.4122301763,-0.1391444227,0.91
 9781411\C,0,5.4342448546,-0.7580868026,0.271895858\C,0,5.1847654661,-2
 .2406990569,0.1184084303\C,0,3.8484429261,-2.5617431509,-0.5708706571\
 C,0,3.7425974511,-1.9816935367,-1.9835265209\C,0,2.423947874,-2.332017
 1083,-2.6769037225\C,0,2.3218596859,-1.7579169618,-4.0930303691\C,0,0.
 9711421745,-2.0086344292,-4.7797944587\C,0,0.5767170673,-3.4850152787,

 Normal termination of Gaussian 16 at Sat Feb  5 08:58:15 2022.
 Gaussian 16:  ES64L-G16RevC.01  3-Jul-2019

 --------------------------------------------------------------------
 # M062X/def2tzvp int=(grid=ultrafine) nmr=giao guess=read geom=check
 --------------------------------------------------------------------

 -------
 Ac1.xyz
 -------
 Structure from the checkpoint file:  "Ac1_clust-44.chk"
 Charge =  0 Multiplicity = 1

                         Standard orientation:
 ---------------------------------------------------------------------
 Center     Atomic      Atomic             Coordinates (Angstroms)
 Number     Number       Type             X           Y           Z
 ---------------------------------------------------------------------
      1          8           0        4.143506   -0.685075   -0.850450
      2          6           0        3.952557    0.128625    0.221366
      3          6           0        3.085056    1.316879   -0.124224
      4          6           0        1.731630    0.920797   -0.736833
      5          6           0        0.880313    0.049980    0.190633
      6          6           0       -0.478984   -0.313909   -0.411224
      7          6           0       -1.333344   -1.178702    0.520242
      8          6           0       -2.663103   -1.642601   -0.092522
      9          6           0       -3.605254   -0.517380   -0.545361
     10          6           0       -4.016758    0.449885    0.569240
     11          6           0       -5.028646    1.496993    0.099314
     12          8           0        4.439493   -0.107919    1.304324
     13          1           0        4.703765   -1.413041   -0.532949
     14          1           0        3.642637    1.940696   -0.833043
     15          1           0        2.950689    1.889536    0.796370
     16          1           0        1.183874    1.838080   -0.984625
     17          1           0        1.906342    0.392901   -1.680620
     18          1           0        1.427094   -0.871659    0.431244
     19          1           0        0.730446    0.572013    1.145673
     20          1           0       -1.017221    0.609532   -0.661327
     21          1           0       -0.326144   -0.843491   -1.362238
     22          1           0       -0.754911   -2.064913    0.812346
     23          1           0       -1.522867   -0.626779    1.449802
     24          1           0       -3.187376   -2.270364    0.640078
     25          1           0       -2.449534   -2.291121   -0.952543
     26          1           0       -3.142279    0.051911   -1.362076
     27          1           0       -4.509319   -0.970098   -0.973700
     28          1           0       -4.438605   -0.122497    1.406573
     29          1           0       -3.129214    0.957900    0.966266
     30          1           0       -4.619623    2.099174   -0.719891
     31          1           0       -5.945483    1.022509   -0.267981
     32          1           0       -5.307059    2.180273    0.907860
 ---------------------------------------------------------------------

 SCF Done:  E(RM062X) =  -543.543046527     A.U. after    1 cycles

      1  O    Isotropic =   106.6853   Anisotropy =   231.8054

      2  C    Isotropic =    -8.4260   Anisotropy =   128.5498

      3  C    Isotropic =   146.5719   Anisotropy =    28.7986

      4  C    Isotropic =   155.8481   Anisotropy =    23.8658

      5  C    Isotropic =   152.4188   Anisotropy =    34.2972

      6  C    Isotropic =   154.7672   Anisotropy =    28.4708

      7  C    Isotropic =   156.8462   Anisotropy =    29.1810

      8  C    Isotropic =   154.7772   Anisotropy =    12.0841

      9  C    Isotropic =   155.0167   Anisotropy =    30.9538

     10  C    Isotropic =   163.0214   Anisotropy =    13.4368

     11  C    Isotropic =   170.0921   Anisotropy =    28.2891

     12  O    Isotropic =  -181.4482   Anisotropy =   628.7189

     13  H    Isotropic =    25.8352   Anisotropy =    11.0052

     14  H    Isotropic =    29.4193   Anisotropy =     7.9946

     15  H    Isotropic =    29.7568   Anisotropy =     6.1950

     16  H    Isotropic =    30.4947   Anisotropy =     6.6999

     17  H    Isotropic =    30.0161   Anisotropy =     6.0929

     18  H    Isotropic =    30.6962   Anisotropy =     6.1908

     19  H    Isotropic =    30.8201   Anisotropy =     5.0867

     20  H    Isotropic =    30.5554   Anisotropy =     7.1229

     21  H    Isotropic =    31.0491   Anisotropy =     5.3876

     22  H    Isotropic =    30.6471   Anisotropy =     7.5564

     23  H    Isotropic =    30.5062   Anisotropy =     4.7083

     24  H    Isotropic =    30.4604   Anisotropy =     9.0994

     25  H    Isotropic =    30.4761   Anisotropy =     8.6273

     26  H    Isotropic =    30.5404   Anisotropy =     4.4134

     27  H    Isotropic =    30.6914   Anisotropy =     8.1793

     28  H    Isotropic =    31.0016   Anisotropy =     7.6523

     29  H    Isotropic =    30.4752   Anisotropy =     6.7624

     30  H    Isotropic =    31.1176   Anisotropy =     8.2573

     31  H    Isotropic =    31.0779   Anisotropy =     9.3395

     32  H    Isotropic =    30.7425   Anisotropy =    10.8920

 The electronic state is 1-A.
 Alpha  occ. eigenvalues --  -19.67509 -19.62063 -10.67875 -10.55428 -10.54401
 Alpha  occ. eigenvalues --  -10.53443 -10.53122 -10.52904 -10.52860 -10.52824
 Alpha  occ. eigenvalues --  -10.52702 -10.52239  -1.23506  -1.13944  -0.92209
 Alpha  occ. eigenvalues --   -0.90315  -0.86957  -0.82966  -0.77998  -0.73456
 Alpha  occ. eigenvalues --   -0.69944  -0.67971  -0.66808  -0.63313  -0.58216
 Alpha  occ. eigenvalues --   -0.56965  -0.55278  -0.54697  -0.53581  -0.51684
 Alpha  occ. eigenvalues --   -0.49854  -0.49546  -0.48165  -0.47837  -0.46309
 Alpha  occ. eigenvalues --   -0.45201  -0.44288  -0.42347  -0.42051  -0.41013
 Alpha  occ. eigenvalues --   -0.40368  -0.40029  -0.39002  -0.38651  -0.37195
 Alpha  occ. eigenvalues --   -0.36895  -0.36366  -0.35487
 Alpha virt. eigenvalues --    0.04231   0.05439   0.06348   0.07875   0.08236
 Alpha virt. eigenvalues --    0.08739   0.09609   0.10930   0.11241   0.12389
 Alpha virt. eigenvalues --    0.13391   0.13887   0.14651   0.14790   0.15304

 Mulliken charges:
               1
     1  O   -0.409747
     2  C    0.317649
     3  C   -0.292278
     4  C   -0.278891
     5  C   -0.294822
     6  C   -0.307133
     7  C   -0.311812
     8  C   -0.274693
     9  C   -0.313406
    10  C   -0.254161
    11  C   -0.423967
    12  O   -0.327310
    13  H    0.336116
    14  H    0.166098
    15  H    0.165316
    16  H    0.147853
    17  H    0.165986
    18  H    0.153984
    19  H    0.147738
    20  H    0.147427
    21  H    0.149453
    22  H    0.149862
    23  H    0.161825
    24  H    0.149967
    25  H    0.147299
    26  H    0.153793
    27  H    0.145178
    28  H    0.136277
    29  H    0.132488
    30  H    0.134977
    31  H    0.137098
    32  H    0.141835
 Sum of Mulliken charges =  -0.00000

 Dipole moment (field-independent basis, Debye):
    X=             -1.0491    Y=              0.1410    Z=             -1.5619  Tot=              1.8869
 Quadrupole moment (field-independent basis, Debye-Ang):
   XX=            -82.9842   YY=            -73.1487   ZZ=            -82.5948
   XY=             -0.8310   XZ=             -8.7811   YZ=              0.4047

 1\1\GINC-NOTCH209\SP\RM062X\def2TZVP\C10H20O2\U6032257\05-Feb-2022\0\\
 # M062X/def2tzvp int=(grid=ultrafine) nmr=giao guess=read geom=check\\
 Ac1.xyz\\0,1\O,0,4.4122301763,-0.1391444227,0.919781411\C,0,5.43424485
 46,-0.7580868026,0.271895858\C,0,5.1847654661,-2.2406990569,0.11840843
 03\C,0,3.8484429261,-2.5617431509,-0.5708706571\C,0,3.7425974511,-1.98
 16935367,-1.9835265209\C,0,2.423947874,-2.3320171083,-2.6769037225\C,0
 ,2.3218596859,-1.7579169618,-4.0930303691\C,0,0.9711421745,-2.00863442
 92,-4.7797944587\C,0,0.5767170673,-3.4850152787,-4.933291667\C,0,1.574

 Normal termination of Gaussian 16 at Sat Feb  5 08:59:12 2022.
