 Gaussian 16, Revision C.01,

 ----------------------------------------------------------------------
 # B3LYP/6-31G(d,p) empiricaldispersion=GD3BJ int=(grid=ultrafine) opt
 freq=noraman
 ----------------------------------------------------------------------

 -------
 Ac1.xyz
 -------
 Symbolic Z-matrix:
 Charge =  0 Multiplicity = 1

 SCF Done:  E(RB3LYP) =  -543.662987066     A.U. after   13 cycles
 SCF Done:  E(RB3LYP) =  -543.663320779     A.U. after   12 cycles
 SCF Done:  E(RB3LYP) =  -543.664681622     A.U. after   12 cycles
 SCF Done:  E(RB3LYP) =  -543.664880782     A.U. after   12 cycles
 SCF Done:  E(RB3LYP) =  -543.665816129     A.U. after   11 cycles
 SCF Done:  E(RB3LYP) =  -543.665831747     A.U. after   11 cycles
 SCF Done:  E(RB3LYP) =  -543.666032646     A.U. after   11 cycles
 SCF Done:  E(RB3LYP) =  -543.666088680     A.U. after   11 cycles
 SCF Done:  E(RB3LYP) =  -543.666159533     A.U. after   12 cycles
 SCF Done:  E(RB3LYP) =  -543.666207990     A.U. after   11 cycles
 SCF Done:  E(RB3LYP) =  -543.666233678     A.U. after   10 cycles
 SCF Done:  E(RB3LYP) =  -543.666234478     A.U. after    8 cycles
 SCF Done:  E(RB3LYP) =  -543.666234564     A.U. after    8 cycles
 SCF Done:  E(RB3LYP) =  -543.666234655     A.U. after    8 cycles
 SCF Done:  E(RB3LYP) =  -543.666234675     A.U. after    8 cycles
 SCF Done:  E(RB3LYP) =  -543.666234687     A.U. after    7 cycles
 Optimization completed.
    -- Stationary point found.
 Normal termination of Gaussian 16 at Thu Feb  3 07:07:19 2022.

 ----------------------------------------------------------------------
 #N Geom=AllCheck Guess=TCheck SCRF=Check GenChk RB3LYP/6-31G(d,p) Freq
 ----------------------------------------------------------------------

 Structure from the checkpoint file:  "Ac1_clust-15.chk"
 -------
 Ac1.xyz
 -------
 Charge =  0 Multiplicity = 1

 SCF Done:  E(RB3LYP) =  -543.666234687     A.U. after    1 cycles

                      1                      2                      3
                      A                      A                      A
 Frequencies --     27.4406                37.0242                45.6111
 Red. masses --      6.0180                 4.6258                 3.5242
 Frc consts  --      0.0027                 0.0037                 0.0043
 IR Inten    --      0.9472                 0.3190                 0.4546

                      4                      5                      6
                      A                      A                      A
 Frequencies --     55.5794                85.6544               107.0258
 Red. masses --      3.1031                 3.2417                 3.9547
 Frc consts  --      0.0056                 0.0140                 0.0267
 IR Inten    --      0.6119                 0.1901                 1.5403

                      7                      8                      9
                      A                      A                      A
 Frequencies --    163.5462               191.7955               208.0576
 Red. masses --      1.8646                 2.7875                 2.5046
 Frc consts  --      0.0294                 0.0604                 0.0639
 IR Inten    --      0.1775                 0.0642                 0.3662

                     10                     11                     12
                      A                      A                      A
 Frequencies --    234.6383               251.9587               283.7529
 Red. masses --      2.1674                 1.7104                 1.5536
 Frc consts  --      0.0703                 0.0640                 0.0737
 IR Inten    --      0.0156                 0.1226                 0.1641

                     13                     14                     15
                      A                      A                      A
 Frequencies --    338.9204               365.3074               399.4789
 Red. masses --      1.9296                 2.0051                 2.1741
 Frc consts  --      0.1306                 0.1577                 0.2044
 IR Inten    --      0.0954                 0.8426                 0.2622

                     16                     17                     18
                      A                      A                      A
 Frequencies --    434.6433               478.6943               518.4966
 Red. masses --      2.5094                 1.9021                 2.2073
 Frc consts  --      0.2793                 0.2568                 0.3496
 IR Inten    --      4.1157                 1.2034                 0.6931

                     19                     20                     21
                      A                      A                      A
 Frequencies --    570.7821               630.1472               728.3952
 Red. masses --      3.6115                 1.3170                 1.6367
 Frc consts  --      0.6932                 0.3081                 0.5116
 IR Inten    --     47.1127                64.7306                24.6376

                     22                     23                     24
                      A                      A                      A
 Frequencies --    734.6933               754.3037               797.6858
 Red. masses --      1.4546                 1.3731                 2.6084
 Frc consts  --      0.4626                 0.4603                 0.9779
 IR Inten    --     27.4533                 0.0930                13.4690

                     25                     26                     27
                      A                      A                      A
 Frequencies --    810.1991               822.5789               845.1553
 Red. masses --      1.8392                 2.5315                 2.0252
 Frc consts  --      0.7113                 1.0092                 0.8523
 IR Inten    --      4.4773                 2.7231                 2.5919

                     28                     29                     30
                      A                      A                      A
 Frequencies --    876.3571               908.8784               921.7926
 Red. masses --      1.4772                 1.7543                 2.0532
 Frc consts  --      0.6684                 0.8538                 1.0279
 IR Inten    --      0.5288                 3.3520                 1.5168

                     31                     32                     33
                      A                      A                      A
 Frequencies --    959.8185               987.6639              1009.9599
 Red. masses --      1.8414                 2.0644                 1.6265
 Frc consts  --      0.9995                 1.1865                 0.9775
 IR Inten    --      4.2877                16.4543                 2.8619

                     34                     35                     36
                      A                      A                      A
 Frequencies --   1021.3859              1060.9142              1063.1172
 Red. masses --      1.9340                 1.6266                 1.7414
 Frc consts  --      1.1887                 1.0787                 1.1596
 IR Inten    --     19.0360                 0.4573                 3.8004

                     37                     38                     39
                      A                      A                      A
 Frequencies --   1091.8179              1111.3945              1129.7307
 Red. masses --      2.2978                 2.0939                 1.5603
 Frc consts  --      1.6138                 1.5239                 1.1733
 IR Inten    --     33.0439                14.4366                23.3338

                     40                     41                     42
                      A                      A                      A
 Frequencies --   1140.8149              1167.2241              1198.2989
 Red. masses --      1.7706                 1.7724                 1.4780
 Frc consts  --      1.3577                 1.4227                 1.2504
 IR Inten    --     16.4263                81.3085                 2.0560

                     43                     44                     45
                      A                      A                      A
 Frequencies --   1212.8834              1246.4733              1271.8958
 Red. masses --      1.3894                 1.3555                 1.3324
 Frc consts  --      1.2042                 1.2408                 1.2700
 IR Inten    --     24.6032                82.1286                 3.7341

                     46                     47                     48
                      A                      A                      A
 Frequencies --   1294.6904              1302.7811              1321.8066
 Red. masses --      1.2759                 1.2650                 1.1980
 Frc consts  --      1.2601                 1.2650                 1.2332
 IR Inten    --      3.2903                 0.3224                 3.4493

                     49                     50                     51
                      A                      A                      A
 Frequencies --   1340.3300              1346.4575              1351.2842
 Red. masses --      1.3266                 1.1551                 1.2558
 Frc consts  --      1.4042                 1.2338                 1.3511
 IR Inten    --     12.5399                 3.1441                 4.9059

                     52                     53                     54
                      A                      A                      A
 Frequencies --   1374.9914              1385.0450              1394.4797
 Red. masses --      1.4389                 1.3760                 1.4584
 Frc consts  --      1.6028                 1.5552                 1.6710
 IR Inten    --     31.2560                 6.8712                 2.8389

                     55                     56                     57
                      A                      A                      A
 Frequencies --   1400.0526              1405.9694              1416.5357
 Red. masses --      1.4879                 1.4441                 1.6300
 Frc consts  --      1.7183                 1.6819                 1.9271
 IR Inten    --      7.5709                 5.8811                27.2880

                     58                     59                     60
                      A                      A                      A
 Frequencies --   1426.2499              1429.8234              1492.1163
 Red. masses --      1.4473                 1.2997                 1.0916
 Frc consts  --      1.7345                 1.5655                 1.4320
 IR Inten    --      1.5713                 4.8308                 2.2628

                     61                     62                     63
                      A                      A                      A
 Frequencies --   1495.6887              1500.1492              1505.9688
 Red. masses --      1.0794                 1.1108                 1.0885
 Frc consts  --      1.4228                 1.4729                 1.4546
 IR Inten    --      1.7324                 3.3551                 5.2506

                     64                     65                     66
                      A                      A                      A
 Frequencies --   1508.1872              1512.8231              1514.0649
 Red. masses --      1.0590                 1.0862                 1.0652
 Frc consts  --      1.4193                 1.4646                 1.4387
 IR Inten    --      0.2416                 9.2720                 2.8523

                     67                     68                     69
                      A                      A                      A
 Frequencies --   1517.1673              1521.9511              1533.8737
 Red. masses --      1.0804                 1.0760                 1.0802
 Frc consts  --      1.4652                 1.4685                 1.4973
 IR Inten    --      9.5982                 1.7888                 1.2938

                     70                     71                     72
                      A                      A                      A
 Frequencies --   1832.9386              3016.7245              3017.1851
 Red. masses --      9.3996                 1.0619                 1.0617
 Frc consts  --     18.6061                 5.6941                 5.6945
 IR Inten    --    260.8963                50.0906                 5.4180

                     73                     74                     75
                      A                      A                      A
 Frequencies --   3022.9548              3033.8701              3035.1981
 Red. masses --      1.0659                 1.0675                 1.0620
 Frc consts  --      5.7387                 5.7893                 5.7645
 IR Inten    --      4.1635                28.7072                14.7675

                     76                     77                     78
                      A                      A                      A
 Frequencies --   3040.6623              3041.4594              3046.5743
 Red. masses --      1.0412                 1.0638                 1.0656
 Frc consts  --      5.6716                 5.7981                 5.8272
 IR Inten    --     23.9750                10.6728                29.6086

                     79                     80                     81
                      A                      A                      A
 Frequencies --   3053.6840              3055.4572              3064.4688
 Red. masses --      1.0963                 1.0983                 1.0963
 Frc consts  --      6.0231                 6.0414                 6.0658
 IR Inten    --     53.5963                 2.6821                92.7098

                     82                     83                     84
                      A                      A                      A
 Frequencies --   3070.4089              3080.7716              3086.5758
 Red. masses --      1.1003                 1.0678                 1.0999
 Frc consts  --      6.1117                 5.9710                 6.1737
 IR Inten    --     51.1251                11.1795                39.0299

                     85                     86                     87
                      A                      A                      A
 Frequencies --   3089.8744              3099.2990              3107.9732
 Red. masses --      1.0998                 1.0964                 1.1018
 Frc consts  --      6.1865                 6.2049                 6.2705
 IR Inten    --     35.5646                22.8349                49.0478

                     88                     89                     90
                      A                      A                      A
 Frequencies --   3114.2156              3163.1208              3750.6164
 Red. masses --      1.1019                 1.0982                 1.0641
 Frc consts  --      6.2965                 6.4740                 8.8191
 IR Inten    --     52.3868                11.0957                51.6478

 - Thermochemistry -
 -------------------
 Temperature   298.150 Kelvin.  Pressure   1.00000 Atm.
 Atom     1 has atomic number  8 and mass  15.99491

 Molecular mass:   172.14633 amu.
 Principal axes and moments of inertia in atomic units:
                           1         2         3
     Eigenvalues --  1246.778584350.560025075.23406
           X            0.99983  -0.01793  -0.00320
           Y            0.01789   0.99976  -0.01247
           Z            0.00342   0.01242   0.99992
 This molecule is an asymmetric top.
 Rotational symmetry number  1.
 Warning -- assumption of classical behavior for rotation
           may cause significant error
 Rotational temperatures (Kelvin)      0.06947     0.01991     0.01707
 Rotational constants (GHZ):           1.44752     0.41483     0.35560
 Zero-point vibrational energy     768113.3 (Joules/Mol)
                                  183.58347 (Kcal/Mol)
 Warning -- explicit consideration of  19 degrees of freedom as
           vibrations may cause significant error
 Vibrational temperatures:     39.48    53.27    65.62    79.97   123.24
          (Kelvin)            153.99   235.31   275.95   299.35   337.59
                              362.51   408.26   487.63   525.60   574.76
                              625.35   688.73   746.00   821.23   906.64
                             1048.00  1057.06  1085.27  1147.69  1165.70
                             1183.51  1215.99  1260.88  1307.67  1326.25
                             1380.96  1421.03  1453.11  1469.55  1526.42
                             1529.59  1570.88  1599.05  1625.43  1641.38
                             1679.38  1724.08  1745.07  1793.40  1829.97
                             1862.77  1874.41  1901.78  1928.44  1937.25
                             1944.20  1978.31  1992.77  2006.35  2014.36
                             2022.88  2038.08  2052.06  2057.20  2146.82
                             2151.96  2158.38  2166.75  2169.95  2176.62
                             2178.40  2182.87  2189.75  2206.90  2637.19
                             4340.39  4341.06  4349.36  4365.06  4366.97
                             4374.83  4375.98  4383.34  4393.57  4396.12
                             4409.09  4417.63  4432.54  4440.89  4445.64
                             4459.20  4471.68  4480.66  4551.03  5396.30

 Zero-point correction=                           0.292559 (Hartree/Particle)
 Thermal correction to Energy=                    0.306836
 Thermal correction to Enthalpy=                  0.307780
 Thermal correction to Gibbs Free Energy=         0.249495
 Sum of electronic and zero-point Energies=           -543.373676
 Sum of electronic and thermal Energies=              -543.359399
 Sum of electronic and thermal Enthalpies=            -543.358454
 Sum of electronic and thermal Free Energies=         -543.416740

                     E (Thermal)             CV                S
                      KCal/Mol        Cal/Mol-Kelvin    Cal/Mol-Kelvin
 Total                  192.543             52.016            122.672
 Electronic               0.000              0.000              0.000
 Translational            0.889              2.981             41.337
 Rotational               0.889              2.981             31.688
 Vibrational            190.765             46.054             49.647
 Vibration     1          0.593              1.984              6.006
 Vibration     2          0.594              1.982              5.412
 Vibration     3          0.595              1.979              4.999
 Vibration     4          0.596              1.975              4.608
 Vibration     5          0.601              1.959              3.757
 Vibration     6          0.606              1.944              3.322
 Vibration     7          0.623              1.887              2.508
 Vibration     8          0.634              1.851              2.210
 Vibration     9          0.641              1.828              2.061
 Vibration    10          0.654              1.788              1.843
 Vibration    11          0.664              1.759              1.717
 Vibration    12          0.682              1.704              1.511
 Vibration    13          0.719              1.598              1.217
 Vibration    14          0.739              1.544              1.099
 Vibration    15          0.766              1.471              0.965
 Vibration    16          0.795              1.395              0.844
 Vibration    17          0.835              1.297              0.714
 Vibration    18          0.873              1.209              0.613
 Vibration    19          0.927              1.094              0.503

 Optimization completed.
    -- Stationary point found.
 Normal termination of Gaussian 16 at Thu Feb  3 07:08:54 2022.

 ----------------------------------------------------------------------
 # M062X/def2tzvp int=(grid=ultrafine) pop=nbo7 polar prop=efg volume g
 uess=read geom=check
 ----------------------------------------------------------------------

 -------
 Ac1.xyz
 -------
 Structure from the checkpoint file:  "Ac1_clust-15.chk"
 Charge =  0 Multiplicity = 1

 SCF Done:  E(RM062X) =  -543.539978521     A.U. after   11 cycles

  Exact polarizability:     143.981      -2.214     119.863      -2.002       1.413     109.006
 Approx polarizability:     149.676      -2.193     143.243      -3.307       5.056     143.789

 Summary of Natural Population Analysis:

                                     Natural Population
             Natural    ---------------------------------------------
  Atom No    Charge        Core      Valence    Rydberg      Total
 --------------------------------------------------------------------
    O  1   -0.69102      2.00000     6.66883    0.02219     8.69102
    C  2    0.79898      1.99999     3.16348    0.03755     5.20102
    C  3   -0.51125      1.99999     4.49799    0.01327     6.51125
    C  4   -0.38973      1.99999     4.37904    0.01070     6.38973
    C  5   -0.41080      1.99999     4.39958    0.01123     6.41080
    C  6   -0.38638      1.99999     4.37509    0.01130     6.38638
    C  7   -0.40220      1.99999     4.39105    0.01115     6.40220
    C  8   -0.41899      1.99999     4.40712    0.01187     6.41899
    C  9   -0.38655      1.99999     4.37534    0.01121     6.38655
    C 10   -0.39739      1.99999     4.38697    0.01042     6.39739
    C 11   -0.61063      1.99999     4.60159    0.00905     6.61063
    O 12   -0.60415      2.00000     6.57782    0.02633     8.60415
    H 13    0.49383      0.00000     0.50279    0.00337     0.50617
    H 14    0.22933      0.00000     0.76883    0.00184     0.77067
    H 15    0.23309      0.00000     0.76556    0.00135     0.76691
    H 16    0.21529      0.00000     0.78326    0.00145     0.78471
    H 17    0.20786      0.00000     0.79027    0.00186     0.79214
    H 18    0.20921      0.00000     0.78885    0.00193     0.79079
    H 19    0.21046      0.00000     0.78821    0.00133     0.78954
    H 20    0.20140      0.00000     0.79692    0.00168     0.79860
    H 21    0.19641      0.00000     0.80188    0.00171     0.80359
    H 22    0.20322      0.00000     0.79512    0.00167     0.79678
    H 23    0.18702      0.00000     0.81100    0.00197     0.81298
    H 24    0.19579      0.00000     0.80239    0.00182     0.80421
    H 25    0.22677      0.00000     0.77153    0.00169     0.77323
    H 26    0.19532      0.00000     0.80306    0.00162     0.80468
    H 27    0.20169      0.00000     0.79664    0.00167     0.79831
    H 28    0.19263      0.00000     0.80566    0.00171     0.80737
    H 29    0.20097      0.00000     0.79751    0.00152     0.79903
    H 30    0.19957      0.00000     0.79921    0.00121     0.80043
    H 31    0.20882      0.00000     0.79020    0.00098     0.79118
    H 32    0.20140      0.00000     0.79725    0.00135     0.79860
 ====================================================================
 * Total *  0.00000     23.99992    71.78005    0.22003    96.00000

 1\1\GINC-NOTCH075\SP\RM062X\def2TZVP\C10H20O2\U6032257\03-Feb-2022\0\\
 # M062X/def2tzvp int=(grid=ultrafine) pop=nbo7 polar prop=efg volume g
 uess=read geom=check\\Ac1.xyz\\0,1\O,0,5.1569004649,0.0050724504,0.218
 2023707\C,0,4.537883674,-0.511318637,-0.8728024115\C,0,3.1006632246,-0
 .8671730853,-0.587491629\C,0,3.0009221962,-2.205823086,0.1813769368\C,
 0,3.5375753356,-3.4402547122,-0.568940831\C,0,2.5091721421,-4.17174147
 17,-1.4480902869\C,0,1.8932290934,-3.3732562304,-2.6058948237\C,0,2.90
 52113722,-2.9042823338,-3.6570252075\C,0,2.2889442453,-2.0455786955,-4

 Normal termination of Gaussian 16 at Thu Feb  3 07:12:38 2022.
 Gaussian 16:  ES64L-G16RevC.01  3-Jul-2019

 --------------------------------------------------------------------
 # M062X/def2tzvp int=(grid=ultrafine) nmr=giao guess=read geom=check
 --------------------------------------------------------------------

 -------
 Ac1.xyz
 -------
 Structure from the checkpoint file:  "Ac1_clust-15.chk"
 Charge =  0 Multiplicity = 1

                         Standard orientation:
 ---------------------------------------------------------------------
 Center     Atomic      Atomic             Coordinates (Angstroms)
 Number     Number       Type             X           Y           Z
 ---------------------------------------------------------------------
      1          8           0       -3.897054   -1.085682   -0.060636
      2          6           0       -2.541077   -1.063797   -0.029308
      3          6           0       -2.018641   -0.133172    1.035885
      4          6           0       -2.095041    1.340985    0.573159
      5          6           0       -1.243317    1.690533   -0.662631
      6          6           0        0.197949    2.135071   -0.361421
      7          6           0        1.106905    1.114601    0.338519
      8          6           0        1.351311   -0.167481   -0.464881
      9          6           0        2.201988   -1.210391    0.275195
     10          6           0        3.604507   -0.746458    0.696841
     11          6           0        4.482933   -0.291119   -0.471473
     12          8           0       -1.869793   -1.700778   -0.814473
     13          1           0       -4.138624   -1.669204   -0.799782
     14          1           0       -0.993394   -0.429459    1.255329
     15          1           0       -2.622919   -0.258111    1.939398
     16          1           0       -3.147493    1.565539    0.369421
     17          1           0       -1.801183    1.978098    1.416045
     18          1           0       -1.239902    0.846381   -1.361162
     19          1           0       -1.734624    2.514305   -1.193642
     20          1           0        0.669464    2.429162   -1.308669
     21          1           0        0.155988    3.046013    0.250979
     22          1           0        2.066208    1.605042    0.543942
     23          1           0        0.695152    0.860415    1.324807
     24          1           0        1.829048    0.097607   -1.417351
     25          1           0        0.398075   -0.637671   -0.726600
     26          1           0        1.655861   -1.540787    1.169678
     27          1           0        2.299349   -2.097959   -0.363568
     28          1           0        3.523426    0.066117    1.429573
     29          1           0        4.101127   -1.572598    1.220912
     30          1           0        4.071382    0.595199   -0.964865
     31          1           0        5.493635   -0.040375   -0.133991
     32          1           0        4.569099   -1.078661   -1.228887
 ---------------------------------------------------------------------

 SCF Done:  E(RM062X) =  -543.539978521     A.U. after    1 cycles

      1  O    Isotropic =   102.2037   Anisotropy =   235.6770

      2  C    Isotropic =   -10.6422   Anisotropy =   130.4785

      3  C    Isotropic =   147.1658   Anisotropy =    28.2159

      4  C    Isotropic =   157.1700   Anisotropy =    15.9773

      5  C    Isotropic =   164.0724   Anisotropy =    19.1358

      6  C    Isotropic =   152.1162   Anisotropy =    13.7240

      7  C    Isotropic =   159.9205   Anisotropy =    17.0633

      8  C    Isotropic =   163.6906   Anisotropy =    22.9926

      9  C    Isotropic =   154.3285   Anisotropy =    12.7806

     10  C    Isotropic =   165.5428   Anisotropy =    14.2052

     11  C    Isotropic =   174.3919   Anisotropy =    19.4052

     12  O    Isotropic =  -176.5549   Anisotropy =   626.9568

     13  H    Isotropic =    25.8092   Anisotropy =    11.3652

     14  H    Isotropic =    29.7545   Anisotropy =     6.2531

     15  H    Isotropic =    29.4649   Anisotropy =     7.8238

     16  H    Isotropic =    29.9548   Anisotropy =     9.5548

     17  H    Isotropic =    30.4841   Anisotropy =     7.1332

     18  H    Isotropic =    30.3130   Anisotropy =     4.1750

     19  H    Isotropic =    30.5811   Anisotropy =    10.5294

     20  H    Isotropic =    30.4894   Anisotropy =     8.7209

     21  H    Isotropic =    30.4224   Anisotropy =     9.2207

     22  H    Isotropic =    30.3496   Anisotropy =     7.7083

     23  H    Isotropic =    30.9920   Anisotropy =     4.6287

     24  H    Isotropic =    30.8531   Anisotropy =     6.3022

     25  H    Isotropic =    29.4048   Anisotropy =    10.2522

     26  H    Isotropic =    30.5559   Anisotropy =     7.5739

     27  H    Isotropic =    30.4173   Anisotropy =     9.0195

     28  H    Isotropic =    30.5056   Anisotropy =     6.3950

     29  H    Isotropic =    30.5316   Anisotropy =    10.2758

     30  H    Isotropic =    30.8941   Anisotropy =     6.2694

     31  H    Isotropic =    30.9481   Anisotropy =    11.2614

     32  H    Isotropic =    31.3857   Anisotropy =     9.6344

 The electronic state is 1-A.
 Alpha  occ. eigenvalues --  -19.67741 -19.62316 -10.68092 -10.55415 -10.54698
 Alpha  occ. eigenvalues --  -10.53170 -10.52931 -10.52541 -10.52350 -10.52117
 Alpha  occ. eigenvalues --  -10.51749 -10.51705  -1.23755  -1.14121  -0.92006
 Alpha  occ. eigenvalues --   -0.89629  -0.86446  -0.82283  -0.78048  -0.73641
 Alpha  occ. eigenvalues --   -0.70727  -0.68114  -0.65127  -0.62143  -0.58490
 Alpha  occ. eigenvalues --   -0.57160  -0.55223  -0.54743  -0.52476  -0.51859
 Alpha  occ. eigenvalues --   -0.50423  -0.49080  -0.47831  -0.47073  -0.45713
 Alpha  occ. eigenvalues --   -0.45314  -0.44557  -0.43029  -0.41958  -0.40810
 Alpha  occ. eigenvalues --   -0.40212  -0.39199  -0.38514  -0.37600  -0.36858
 Alpha  occ. eigenvalues --   -0.36202  -0.35694  -0.35389
 Alpha virt. eigenvalues --    0.03735   0.05842   0.06920   0.07728   0.08505
 Alpha virt. eigenvalues --    0.09803   0.10393   0.10954   0.11797   0.12865
 Alpha virt. eigenvalues --    0.13206   0.13501   0.14269   0.14473   0.16011

 Mulliken charges:
               1
     1  O   -0.407837
     2  C    0.353257
     3  C   -0.318066
     4  C   -0.304406
     5  C   -0.316588
     6  C   -0.286348
     7  C   -0.327558
     8  C   -0.373681
     9  C   -0.261074
    10  C   -0.268716
    11  C   -0.435899
    12  O   -0.340957
    13  H    0.335582
    14  H    0.166523
    15  H    0.167901
    16  H    0.169259
    17  H    0.161953
    18  H    0.183749
    19  H    0.147243
    20  H    0.147011
    21  H    0.152516
    22  H    0.154657
    23  H    0.157157
    24  H    0.162934
    25  H    0.188713
    26  H    0.136078
    27  H    0.152460
    28  H    0.143919
    29  H    0.137388
    30  H    0.138702
    31  H    0.142074
    32  H    0.142057
 Sum of Mulliken charges =  -0.00000

 Dipole moment (field-independent basis, Debye):
    X=             -1.0274    Y=              1.0382    Z=              0.7996  Tot=              1.6651
 Quadrupole moment (field-independent basis, Debye-Ang):
   XX=            -73.3264   YY=            -78.3185   ZZ=            -76.9443
   XY=              1.0652   XZ=              1.3683   YZ=             -0.6970

 1\1\GINC-NOTCH075\SP\RM062X\def2TZVP\C10H20O2\U6032257\03-Feb-2022\0\\
 # M062X/def2tzvp int=(grid=ultrafine) nmr=giao guess=read geom=check\\
 Ac1.xyz\\0,1\O,0,5.1569004649,0.0050724504,0.2182023707\C,0,4.53788367
 4,-0.511318637,-0.8728024115\C,0,3.1006632246,-0.8671730853,-0.5874916
 29\C,0,3.0009221962,-2.205823086,0.1813769368\C,0,3.5375753356,-3.4402
 547122,-0.568940831\C,0,2.5091721421,-4.1717414717,-1.4480902869\C,0,1
 .8932290934,-3.3732562304,-2.6058948237\C,0,2.9052113722,-2.9042823338
 ,-3.6570252075\C,0,2.2889442453,-2.0455786955,-4.7714173453\C,0,1.1703

 Normal termination of Gaussian 16 at Thu Feb  3 07:14:10 2022.
