 Gaussian 16, Revision C.01,

 ----------------------------------------------------------------------
 # B3LYP/6-31G(d,p) empiricaldispersion=GD3BJ int=(grid=ultrafine) opt
 freq=noraman
 ----------------------------------------------------------------------

 -------
 Ac1.xyz
 -------
 Symbolic Z-matrix:
 Charge =  0 Multiplicity = 1

 SCF Done:  E(RB3LYP) =  -543.663663420     A.U. after   13 cycles
 SCF Done:  E(RB3LYP) =  -543.665969176     A.U. after   12 cycles
 SCF Done:  E(RB3LYP) =  -543.666109707     A.U. after   12 cycles
 SCF Done:  E(RB3LYP) =  -543.666731020     A.U. after   11 cycles
 SCF Done:  E(RB3LYP) =  -543.665171076     A.U. after   12 cycles
 SCF Done:  E(RB3LYP) =  -543.666142278     A.U. after   12 cycles
 SCF Done:  E(RB3LYP) =  -543.666857876     A.U. after   10 cycles
 SCF Done:  E(RB3LYP) =  -543.667094105     A.U. after   12 cycles
 SCF Done:  E(RB3LYP) =  -543.666921120     A.U. after   12 cycles
 SCF Done:  E(RB3LYP) =  -543.667211741     A.U. after   12 cycles
 SCF Done:  E(RB3LYP) =  -543.667399107     A.U. after   11 cycles
 SCF Done:  E(RB3LYP) =  -543.667405215     A.U. after    8 cycles
 SCF Done:  E(RB3LYP) =  -543.667409273     A.U. after    9 cycles
 SCF Done:  E(RB3LYP) =  -543.667411500     A.U. after    9 cycles
 SCF Done:  E(RB3LYP) =  -543.667411984     A.U. after    8 cycles
 SCF Done:  E(RB3LYP) =  -543.667412099     A.U. after    7 cycles
 SCF Done:  E(RB3LYP) =  -543.667412113     A.U. after    7 cycles
 Optimization completed.
    -- Stationary point found.
 Normal termination of Gaussian 16 at Sat Feb  5 08:58:08 2022.

 ----------------------------------------------------------------------
 #N Geom=AllCheck Guess=TCheck SCRF=Check GenChk RB3LYP/6-31G(d,p) Freq
 ----------------------------------------------------------------------

 Structure from the checkpoint file:  "Ac1_clust-4.chk"
 -------
 Ac1.xyz
 -------
 Charge =  0 Multiplicity = 1

 SCF Done:  E(RB3LYP) =  -543.667412113     A.U. after    1 cycles

                      1                      2                      3
                      A                      A                      A
 Frequencies --     26.3583                30.3458                58.2076
 Red. masses --      3.6545                 8.1344                 3.5081
 Frc consts  --      0.0015                 0.0044                 0.0070
 IR Inten    --      0.3269                 1.0952                 0.0533

                      4                      5                      6
                      A                      A                      A
 Frequencies --     61.1939                74.3172               106.6866
 Red. masses --      3.3419                 2.9758                 2.7362
 Frc consts  --      0.0074                 0.0097                 0.0183
 IR Inten    --      0.3964                 0.2428                 0.1580

                      7                      8                      9
                      A                      A                      A
 Frequencies --    141.4378               193.3059               201.3605
 Red. masses --      1.8203                 2.5463                 1.9603
 Frc consts  --      0.0215                 0.0561                 0.0468
 IR Inten    --      0.0466                 0.5014                 0.0262

                     10                     11                     12
                      A                      A                      A
 Frequencies --    215.8603               260.1636               297.2313
 Red. masses --      2.5550                 1.6181                 1.8538
 Frc consts  --      0.0701                 0.0645                 0.0965
 IR Inten    --      0.8435                 0.5094                 0.8124

                     13                     14                     15
                      A                      A                      A
 Frequencies --    307.4786               345.1445               375.0695
 Red. masses --      1.9067                 2.3604                 2.1946
 Frc consts  --      0.1062                 0.1657                 0.1819
 IR Inten    --      0.0101                 0.7066                 0.0852

                     16                     17                     18
                      A                      A                      A
 Frequencies --    437.1831               485.4012               518.9001
 Red. masses --      2.5084                 2.8629                 2.1705
 Frc consts  --      0.2825                 0.3974                 0.3443
 IR Inten    --      5.6864                 4.0115                 2.6151

                     19                     20                     21
                      A                      A                      A
 Frequencies --    540.5887               629.0118               698.2615
 Red. masses --      2.0250                 2.4733                 1.4684
 Frc consts  --      0.3487                 0.5766                 0.4218
 IR Inten    --     31.1496                30.8740               113.6395

                     22                     23                     24
                      A                      A                      A
 Frequencies --    735.0194               752.1671               783.7481
 Red. masses --      1.2539                 1.4621                 1.5893
 Frc consts  --      0.3991                 0.4874                 0.5752
 IR Inten    --      6.0783                19.8624                 0.8416

                     25                     26                     27
                      A                      A                      A
 Frequencies --    791.0325               828.5442               865.8887
 Red. masses --      1.3331                 1.9800                 2.5940
 Frc consts  --      0.4915                 0.8008                 1.1459
 IR Inten    --      1.4075                 2.4030                 7.5885

                     28                     29                     30
                      A                      A                      A
 Frequencies --    887.2017               919.6718               929.9538
 Red. masses --      2.5386                 2.0050                 1.5338
 Frc consts  --      1.1773                 0.9991                 0.7815
 IR Inten    --      2.8930                 3.8990                 1.5173

                     31                     32                     33
                      A                      A                      A
 Frequencies --    944.3016               997.6541               999.9898
 Red. masses --      1.9851                 1.8029                 1.6580
 Frc consts  --      1.0429                 1.0572                 0.9769
 IR Inten    --      1.2194                 1.3693                 3.9803

                     34                     35                     36
                      A                      A                      A
 Frequencies --   1054.0982              1063.3064              1073.7019
 Red. masses --      1.5936                 1.6485                 2.5477
 Frc consts  --      1.0433                 1.0982                 1.7305
 IR Inten    --      2.2783                 2.2820                 5.6763

                     37                     38                     39
                      A                      A                      A
 Frequencies --   1091.6775              1105.2133              1127.7541
 Red. masses --      2.3164                 2.0916                 1.6757
 Frc consts  --      1.6265                 1.5053                 1.2557
 IR Inten    --      3.1300                 2.5223                63.9322

                     40                     41                     42
                      A                      A                      A
 Frequencies --   1139.9056              1163.4383              1203.7155
 Red. masses --      1.6270                 2.1782                 1.5832
 Frc consts  --      1.2456                 1.7371                 1.3516
 IR Inten    --      1.8990               117.9569                 0.1222

                     43                     44                     45
                      A                      A                      A
 Frequencies --   1213.1218              1232.9188              1269.6849
 Red. masses --      1.4042                 1.3248                 1.3400
 Frc consts  --      1.2176                 1.1865                 1.2728
 IR Inten    --     62.5633                 4.9662                 2.6468

                     46                     47                     48
                      A                      A                      A
 Frequencies --   1291.5141              1309.5827              1318.7690
 Red. masses --      1.3020                 1.2937                 1.3531
 Frc consts  --      1.2795                 1.3073                 1.3865
 IR Inten    --      4.3395                 0.4434                 5.0083

                     49                     50                     51
                      A                      A                      A
 Frequencies --   1331.2455              1343.2448              1351.1842
 Red. masses --      1.1940                 1.1427                 1.2658
 Frc consts  --      1.2467                 1.2147                 1.3616
 IR Inten    --      1.0312                 2.3156                11.8445

                     52                     53                     54
                      A                      A                      A
 Frequencies --   1357.7370              1381.3361              1387.6601
 Red. masses --      1.2477                 1.3557                 1.4103
 Frc consts  --      1.3552                 1.5240                 1.6001
 IR Inten    --      0.1948                 6.8095                 3.0410

                     55                     56                     57
                      A                      A                      A
 Frequencies --   1393.6801              1410.8391              1419.1332
 Red. masses --      1.4153                 1.5422                 1.4932
 Frc consts  --      1.6197                 1.8087                 1.7718
 IR Inten    --      5.1657                 1.4834                 0.8172

                     58                     59                     60
                      A                      A                      A
 Frequencies --   1422.6626              1431.6609              1482.9726
 Red. masses --      1.7670                 1.2954                 1.0974
 Frc consts  --      2.1071                 1.5644                 1.4219
 IR Inten    --     45.5003                 2.7273                10.6380

                     61                     62                     63
                      A                      A                      A
 Frequencies --   1494.0696              1495.0266              1504.6090
 Red. masses --      1.0834                 1.0939                 1.0714
 Frc consts  --      1.4249                 1.4405                 1.4291
 IR Inten    --      0.8856                 8.8273                 1.4787

                     64                     65                     66
                      A                      A                      A
 Frequencies --   1505.3936              1509.8462              1512.6323
 Red. masses --      1.0829                 1.0852                 1.0802
 Frc consts  --      1.4459                 1.4576                 1.4562
 IR Inten    --      2.7267                 3.8542                 0.4370

                     67                     68                     69
                      A                      A                      A
 Frequencies --   1518.5658              1524.3449              1526.9995
 Red. masses --      1.0612                 1.0842                 1.0630
 Frc consts  --      1.4419                 1.4843                 1.4604
 IR Inten    --      4.2380                 5.6945                 3.9133

                     70                     71                     72
                      A                      A                      A
 Frequencies --   1843.1199              3018.8384              3023.5264
 Red. masses --      9.6086                 1.0604                 1.0637
 Frc consts  --     19.2318                 5.6937                 5.7291
 IR Inten    --    210.6276                 8.1897                24.0635

                     73                     74                     75
                      A                      A                      A
 Frequencies --   3025.8721              3027.9351              3034.6488
 Red. masses --      1.0620                 1.0625                 1.0668
 Frc consts  --      5.7288                 5.7395                 5.7886
 IR Inten    --     51.4647                 8.2183                29.3965

                     76                     77                     78
                      A                      A                      A
 Frequencies --   3041.1204              3041.7254              3045.5762
 Red. masses --      1.0385                 1.0713                 1.0692
 Frc consts  --      5.6590                 5.8400                 5.8433
 IR Inten    --     14.9101                22.6986                20.2654

                     79                     80                     81
                      A                      A                      A
 Frequencies --   3055.2179              3055.8091              3058.8915
 Red. masses --      1.0806                 1.0831                 1.1010
 Frc consts  --      5.9427                 5.9589                 6.0696
 IR Inten    --     26.4335                 4.0302                20.8174

                     82                     83                     84
                      A                      A                      A
 Frequencies --   3065.6603              3070.6962              3093.9766
 Red. masses --      1.0938                 1.0996                 1.0983
 Frc consts  --      6.0567                 6.1090                 6.1946
 IR Inten    --     71.4619                60.3776                43.3273

                     85                     86                     87
                      A                      A                      A
 Frequencies --   3097.3925              3108.7924              3111.1702
 Red. masses --      1.0984                 1.0981                 1.0997
 Frc consts  --      6.2088                 6.2530                 6.2717
 IR Inten    --     24.0928                52.5419                36.7189

                     88                     89                     90
                      A                      A                      A
 Frequencies --   3116.1155              3124.5102              3747.2638
 Red. masses --      1.1015                 1.0936                 1.0640
 Frc consts  --      6.3020                 6.2906                 8.8028
 IR Inten    --     46.5238                22.7095                40.7591

 - Thermochemistry -
 -------------------
 Temperature   298.150 Kelvin.  Pressure   1.00000 Atm.
 Atom     1 has atomic number  8 and mass  15.99491

 Molecular mass:   172.14633 amu.
 Principal axes and moments of inertia in atomic units:
                           1         2         3
     Eigenvalues --  1923.252832787.563414085.64019
           X            0.99739   0.07206  -0.00539
           Y           -0.07202   0.99738   0.00691
           Z            0.00587  -0.00650   0.99996
 This molecule is an asymmetric top.
 Rotational symmetry number  1.
 Warning -- assumption of classical behavior for rotation
           may cause significant error
 Rotational temperatures (Kelvin)      0.04504     0.03107     0.02120
 Rotational constants (GHZ):           0.93838     0.64743     0.44173
 Zero-point vibrational energy     766864.8 (Joules/Mol)
                                  183.28509 (Kcal/Mol)
 Warning -- explicit consideration of  19 degrees of freedom as
           vibrations may cause significant error
 Vibrational temperatures:     37.92    43.66    83.75    88.04   106.93
          (Kelvin)            153.50   203.50   278.12   289.71   310.57
                              374.32   427.65   442.39   496.59   539.64
                              629.01   698.38   746.58   777.79   905.01
                             1004.64  1057.53  1082.20  1127.64  1138.12
                             1192.09  1245.82  1276.49  1323.20  1338.00
                             1358.64  1435.40  1438.76  1516.61  1529.86
                             1544.82  1570.68  1590.16  1622.59  1640.07
                             1673.93  1731.88  1745.41  1773.90  1826.79
                             1858.20  1884.20  1897.41  1915.37  1932.63
                             1944.05  1953.48  1987.43  1996.53  2005.19
                             2029.88  2041.82  2046.89  2059.84  2133.67
                             2149.63  2151.01  2164.80  2165.93  2172.33
                             2176.34  2184.88  2193.19  2197.01  2651.84
                             4343.44  4350.18  4353.56  4356.52  4366.18
                             4375.49  4376.36  4381.90  4395.78  4396.63
                             4401.06  4410.80  4418.05  4451.54  4456.46
                             4472.86  4476.28  4483.40  4495.47  5391.48

 Zero-point correction=                           0.292083 (Hartree/Particle)
 Thermal correction to Energy=                    0.306514
 Thermal correction to Enthalpy=                  0.307458
 Thermal correction to Gibbs Free Energy=         0.248885
 Sum of electronic and zero-point Energies=           -543.375329
 Sum of electronic and thermal Energies=              -543.360898
 Sum of electronic and thermal Enthalpies=            -543.359954
 Sum of electronic and thermal Free Energies=         -543.418527

                     E (Thermal)             CV                S
                      KCal/Mol        Cal/Mol-Kelvin    Cal/Mol-Kelvin
 Total                  192.340             52.288            123.277
 Electronic               0.000              0.000              0.000
 Translational            0.889              2.981             41.337
 Rotational               0.889              2.981             31.460
 Vibrational            190.563             46.327             50.480
 Vibration     1          0.593              1.985              6.086
 Vibration     2          0.594              1.984              5.807
 Vibration     3          0.596              1.974              4.517
 Vibration     4          0.597              1.973              4.418
 Vibration     5          0.599              1.966              4.036
 Vibration     6          0.606              1.944              3.328
 Vibration     7          0.615              1.912              2.784
 Vibration     8          0.635              1.849              2.196
 Vibration     9          0.638              1.838              2.121
 Vibration    10          0.645              1.817              1.994
 Vibration    11          0.668              1.746              1.661
 Vibration    12          0.691              1.679              1.432
 Vibration    13          0.697              1.659              1.376
 Vibration    14          0.724              1.585              1.188
 Vibration    15          0.746              1.523              1.059
 Vibration    16          0.797              1.389              0.836
 Vibration    17          0.841              1.282              0.696
 Vibration    18          0.874              1.208              0.613
 Vibration    19          0.896              1.160              0.564

 Optimization completed.
    -- Stationary point found.
 Normal termination of Gaussian 16 at Sat Feb  5 08:59:47 2022.

 ----------------------------------------------------------------------
 # M062X/def2tzvp int=(grid=ultrafine) pop=nbo7 polar prop=efg volume g
 uess=read geom=check
 ----------------------------------------------------------------------

 -------
 Ac1.xyz
 -------
 Structure from the checkpoint file:  "Ac1_clust-4.chk"
 Charge =  0 Multiplicity = 1

 SCF Done:  E(RM062X) =  -543.540251560     A.U. after   12 cycles

  Exact polarizability:     130.547       6.509     128.589       0.681      -0.080     111.149
 Approx polarizability:     143.107       3.634     143.829       2.779      -0.187     150.149

 Summary of Natural Population Analysis:

                                     Natural Population
             Natural    ---------------------------------------------
  Atom No    Charge        Core      Valence    Rydberg      Total
 --------------------------------------------------------------------
    O  1   -0.69167      2.00000     6.66943    0.02224     8.69167
    C  2    0.79812      1.99999     3.16403    0.03785     5.20188
    C  3   -0.51909      1.99999     4.50601    0.01309     6.51909
    C  4   -0.38931      1.99999     4.37769    0.01163     6.38931
    C  5   -0.40108      1.99999     4.38974    0.01136     6.40108
    C  6   -0.40652      1.99999     4.39498    0.01155     6.40652
    C  7   -0.38991      1.99999     4.37919    0.01072     6.38991
    C  8   -0.39254      1.99999     4.38137    0.01117     6.39254
    C  9   -0.39805      1.99999     4.38637    0.01169     6.39805
    C 10   -0.39107      1.99999     4.38068    0.01040     6.39107
    C 11   -0.61178      1.99999     4.60286    0.00892     6.61178
    O 12   -0.60071      2.00000     6.57408    0.02664     8.60071
    H 13    0.49358      0.00000     0.50296    0.00346     0.50642
    H 14    0.22775      0.00000     0.77078    0.00147     0.77225
    H 15    0.24423      0.00000     0.75465    0.00112     0.75577
    H 16    0.22299      0.00000     0.77544    0.00156     0.77701
    H 17    0.20370      0.00000     0.79465    0.00165     0.79630
    H 18    0.20800      0.00000     0.79001    0.00199     0.79200
    H 19    0.20653      0.00000     0.79198    0.00148     0.79347
    H 20    0.20317      0.00000     0.79530    0.00153     0.79683
    H 21    0.19062      0.00000     0.80728    0.00210     0.80938
    H 22    0.19505      0.00000     0.80304    0.00191     0.80495
    H 23    0.20590      0.00000     0.79270    0.00140     0.79410
    H 24    0.19243      0.00000     0.80562    0.00196     0.80757
    H 25    0.19975      0.00000     0.79856    0.00170     0.80025
    H 26    0.19080      0.00000     0.80663    0.00257     0.80920
    H 27    0.20193      0.00000     0.79642    0.00165     0.79807
    H 28    0.19830      0.00000     0.80011    0.00159     0.80170
    H 29    0.19431      0.00000     0.80388    0.00181     0.80569
    H 30    0.20483      0.00000     0.79393    0.00123     0.79517
    H 31    0.20856      0.00000     0.79049    0.00095     0.79144
    H 32    0.20118      0.00000     0.79766    0.00116     0.79882
 ====================================================================
 * Total *  0.00000     23.99992    71.77852    0.22156    96.00000

 1\1\GINC-NOTCH078\SP\RM062X\def2TZVP\C10H20O2\U6032257\05-Feb-2022\0\\
 # M062X/def2tzvp int=(grid=ultrafine) pop=nbo7 polar prop=efg volume g
 uess=read geom=check\\Ac1.xyz\\0,1\O,0,4.7556835659,-0.3818909873,-2.2
 413785892\C,0,4.7897827552,-1.2051943774,-1.1607850935\C,0,3.639378173
 3,-0.9477261172,-0.2133882104\C,0,3.1801057892,-2.2261629131,0.5010670
 425\C,0,2.6226251879,-3.2955482147,-0.4482598089\C,0,1.3095460867,-2.9
 033560889,-1.1417828929\C,0,0.89852863,-3.8445330009,-2.2931131398\C,0
 ,1.3519099609,-3.3703616244,-3.6833990748\C,0,2.868996221,-3.255903594

 Normal termination of Gaussian 16 at Sat Feb  5 09:03:50 2022.
 Gaussian 16:  ES64L-G16RevC.01  3-Jul-2019

 --------------------------------------------------------------------
 # M062X/def2tzvp int=(grid=ultrafine) nmr=giao guess=read geom=check
 --------------------------------------------------------------------

 -------
 Ac1.xyz
 -------
 Structure from the checkpoint file:  "Ac1_clust-4.chk"
 Charge =  0 Multiplicity = 1

                         Standard orientation:
 ---------------------------------------------------------------------
 Center     Atomic      Atomic             Coordinates (Angstroms)
 Number     Number       Type             X           Y           Z
 ---------------------------------------------------------------------
      1          8           0        0.961981   -2.266107   -0.588478
      2          6           0        1.796968   -1.419363    0.069167
      3          6           0        2.331606   -0.331630   -0.835422
      4          6           0        2.570165    0.983703   -0.081257
      5          6           0        1.290213    1.602954    0.496533
      6          6           0        0.290300    2.091748   -0.561871
      7          6           0       -1.099408    2.453191    0.002382
      8          6           0       -2.125962    1.311776   -0.079146
      9          6           0       -1.758726    0.051320    0.711253
     10          6           0       -2.791877   -1.079227    0.606547
     11          6           0       -2.867817   -1.708573   -0.788504
     12          8           0        2.065583   -1.560976    1.241710
     13          1           0        0.687918   -2.932657    0.064555
     14          1           0        1.652941   -0.209734   -1.682593
     15          1           0        3.277892   -0.704498   -1.248211
     16          1           0        3.273788    0.786657    0.733280
     17          1           0        3.055122    1.692178   -0.763738
     18          1           0        0.817913    0.873062    1.160865
     19          1           0        1.563962    2.451188    1.136090
     20          1           0        0.726397    2.961591   -1.068823
     21          1           0        0.158799    1.330417   -1.341688
     22          1           0       -0.996728    2.785521    1.044546
     23          1           0       -1.503975    3.310270   -0.548611
     24          1           0       -2.265674    1.052542   -1.136658
     25          1           0       -3.098950    1.678997    0.274676
     26          1           0       -0.796950   -0.337946    0.360894
     27          1           0       -1.617012    0.321059    1.766049
     28          1           0       -2.535047   -1.858293    1.335493
     29          1           0       -3.781338   -0.703182    0.899592
     30          1           0       -1.881016   -2.065218   -1.105363
     31          1           0       -3.557046   -2.558890   -0.804883
     32          1           0       -3.214276   -0.991792   -1.539429
 ---------------------------------------------------------------------

 SCF Done:  E(RM062X) =  -543.540251560     A.U. after    1 cycles

      1  O    Isotropic =    90.2237   Anisotropy =   241.9416

      2  C    Isotropic =    -9.7285   Anisotropy =   126.8306

      3  C    Isotropic =   152.9566   Anisotropy =    38.5270

      4  C    Isotropic =   159.6983   Anisotropy =    13.8041

      5  C    Isotropic =   154.8091   Anisotropy =    30.6520

      6  C    Isotropic =   157.1089   Anisotropy =    27.9846

      7  C    Isotropic =   156.7717   Anisotropy =    14.1750

      8  C    Isotropic =   152.3712   Anisotropy =    27.8110

      9  C    Isotropic =   152.0903   Anisotropy =    24.6615

     10  C    Isotropic =   160.6934   Anisotropy =    17.8013

     11  C    Isotropic =   172.6364   Anisotropy =    21.3574

     12  O    Isotropic =  -162.0690   Anisotropy =   662.5554

     13  H    Isotropic =    25.6590   Anisotropy =     9.8610

     14  H    Isotropic =    29.1722   Anisotropy =     3.5777

     15  H    Isotropic =    29.7535   Anisotropy =     9.1313

     16  H    Isotropic =    29.7777   Anisotropy =     9.7268

     17  H    Isotropic =    30.7724   Anisotropy =     9.3875

     18  H    Isotropic =    30.4846   Anisotropy =     4.1104

     19  H    Isotropic =    30.5512   Anisotropy =     8.4654

     20  H    Isotropic =    30.5940   Anisotropy =     8.8785

     21  H    Isotropic =    30.8409   Anisotropy =     3.5367

     22  H    Isotropic =    30.9557   Anisotropy =     6.9818

     23  H    Isotropic =    30.2064   Anisotropy =    10.2319

     24  H    Isotropic =    30.4238   Anisotropy =     5.3964

     25  H    Isotropic =    30.7808   Anisotropy =     9.0331

     26  H    Isotropic =    30.7035   Anisotropy =     9.5953

     27  H    Isotropic =    30.6870   Anisotropy =     6.0408

     28  H    Isotropic =    30.3723   Anisotropy =     8.9273

     29  H    Isotropic =    30.8056   Anisotropy =     8.9440

     30  H    Isotropic =    31.2158   Anisotropy =     8.2428

     31  H    Isotropic =    30.9357   Anisotropy =    11.2360

     32  H    Isotropic =    30.8058   Anisotropy =     7.2082

 The electronic state is 1-A.
 Alpha  occ. eigenvalues --  -19.67820 -19.62291 -10.68137 -10.55490 -10.53944
 Alpha  occ. eigenvalues --  -10.52959 -10.52887 -10.52835 -10.52806 -10.52657
 Alpha  occ. eigenvalues --  -10.52522 -10.51983  -1.23731  -1.14203  -0.91987
 Alpha  occ. eigenvalues --   -0.89978  -0.86670  -0.82496  -0.78145  -0.74253
 Alpha  occ. eigenvalues --   -0.70274  -0.67278  -0.64478  -0.63979  -0.58708
 Alpha  occ. eigenvalues --   -0.57501  -0.56573  -0.53731  -0.52679  -0.51497
 Alpha  occ. eigenvalues --   -0.50373  -0.50102  -0.48468  -0.47286  -0.45422
 Alpha  occ. eigenvalues --   -0.44918  -0.44375  -0.42214  -0.41913  -0.41169
 Alpha  occ. eigenvalues --   -0.40107  -0.39568  -0.38795  -0.38351  -0.37332
 Alpha  occ. eigenvalues --   -0.36443  -0.36023  -0.35584
 Alpha virt. eigenvalues --    0.03669   0.04940   0.07020   0.07887   0.08212
 Alpha virt. eigenvalues --    0.09771   0.10201   0.11077   0.11389   0.12895
 Alpha virt. eigenvalues --    0.13168   0.13620   0.14590   0.15181   0.15324

 Mulliken charges:
               1
     1  O   -0.407332
     2  C    0.323409
     3  C   -0.339847
     4  C   -0.252628
     5  C   -0.372850
     6  C   -0.280865
     7  C   -0.268981
     8  C   -0.314379
     9  C   -0.232413
    10  C   -0.261672
    11  C   -0.439230
    12  O   -0.323961
    13  H    0.337254
    14  H    0.183663
    15  H    0.172455
    16  H    0.168152
    17  H    0.149146
    18  H    0.197067
    19  H    0.151342
    20  H    0.144387
    21  H    0.146642
    22  H    0.153282
    23  H    0.142906
    24  H    0.152639
    25  H    0.140664
    26  H    0.076809
    27  H    0.157544
    28  H    0.137709
    29  H    0.137057
    30  H    0.140221
    31  H    0.142454
    32  H    0.139358
 Sum of Mulliken charges =  -0.00000

 Dipole moment (field-independent basis, Debye):
    X=             -0.3209    Y=              0.4129    Z=             -1.3444  Tot=              1.4426
 Quadrupole moment (field-independent basis, Debye-Ang):
   XX=            -77.3527   YY=            -74.0646   ZZ=            -81.4040
   XY=              2.5966   XZ=             -5.3988   YZ=              0.6253

 1\1\GINC-NOTCH078\SP\RM062X\def2TZVP\C10H20O2\U6032257\05-Feb-2022\0\\
 # M062X/def2tzvp int=(grid=ultrafine) nmr=giao guess=read geom=check\\
 Ac1.xyz\\0,1\O,0,4.7556835659,-0.3818909873,-2.2413785892\C,0,4.789782
 7552,-1.2051943774,-1.1607850935\C,0,3.6393781733,-0.9477261172,-0.213
 3882104\C,0,3.1801057892,-2.2261629131,0.5010670425\C,0,2.6226251879,-
 3.2955482147,-0.4482598089\C,0,1.3095460867,-2.9033560889,-1.141782892
 9\C,0,0.89852863,-3.8445330009,-2.2931131398\C,0,1.3519099609,-3.37036
 16244,-3.6833990748\C,0,2.868996221,-3.2559035941,-3.866947723\C,0,3.2

 Normal termination of Gaussian 16 at Sat Feb  5 09:05:24 2022.
