 Gaussian 16, Revision C.01,

 ----------------------------------------------------------------------
 # B3LYP/6-31G(d,p) empiricaldispersion=GD3BJ int=(grid=ultrafine) opt
 freq=noraman
 ----------------------------------------------------------------------

 -------
 Ac1.xyz
 -------
 Symbolic Z-matrix:
 Charge =  0 Multiplicity = 1

 SCF Done:  E(RB3LYP) =  -543.665482053     A.U. after   13 cycles
 SCF Done:  E(RB3LYP) =  -543.668024252     A.U. after   12 cycles
 SCF Done:  E(RB3LYP) =  -543.667355229     A.U. after   11 cycles
 SCF Done:  E(RB3LYP) =  -543.668345742     A.U. after   11 cycles
 SCF Done:  E(RB3LYP) =  -543.668395963     A.U. after   11 cycles
 SCF Done:  E(RB3LYP) =  -543.668434907     A.U. after   11 cycles
 SCF Done:  E(RB3LYP) =  -543.668453815     A.U. after   11 cycles
 SCF Done:  E(RB3LYP) =  -543.668462846     A.U. after   10 cycles
 SCF Done:  E(RB3LYP) =  -543.668464361     A.U. after    9 cycles
 SCF Done:  E(RB3LYP) =  -543.668464670     A.U. after    8 cycles
 SCF Done:  E(RB3LYP) =  -543.668464692     A.U. after    6 cycles
 Optimization completed.
    -- Stationary point found.
 Normal termination of Gaussian 16 at Thu Feb  3 08:27:40 2022.

 ----------------------------------------------------------------------
 #N Geom=AllCheck Guess=TCheck SCRF=Check GenChk RB3LYP/6-31G(d,p) Freq
 ----------------------------------------------------------------------

 Structure from the checkpoint file:  "Ac1_clust-23.chk"
 -------
 Ac1.xyz
 -------
 Charge =  0 Multiplicity = 1

 SCF Done:  E(RB3LYP) =  -543.668464692     A.U. after    1 cycles

                      1                      2                      3
                      A                      A                      A
 Frequencies --     21.3968                26.2678                40.6415
 Red. masses --      4.3497                 6.5715                 3.5065
 Frc consts  --      0.0012                 0.0027                 0.0034
 IR Inten    --      0.0210                 1.1757                 0.9663

                      4                      5                      6
                      A                      A                      A
 Frequencies --     67.5290                74.4729                99.0603
 Red. masses --      2.0439                 3.1730                 2.3677
 Frc consts  --      0.0055                 0.0104                 0.0137
 IR Inten    --      0.1465                 0.3127                 0.1911

                      7                      8                      9
                      A                      A                      A
 Frequencies --    125.1289               136.3632               178.0878
 Red. masses --      2.1434                 3.2492                 2.6114
 Frc consts  --      0.0198                 0.0356                 0.0488
 IR Inten    --      0.3164                 0.0796                 0.0219

                     10                     11                     12
                      A                      A                      A
 Frequencies --    202.6898               245.7300               269.3357
 Red. masses --      2.4953                 1.2571                 1.6815
 Frc consts  --      0.0604                 0.0447                 0.0719
 IR Inten    --      0.0635                 0.0014                 0.0200

                     13                     14                     15
                      A                      A                      A
 Frequencies --    277.3388               344.0182               367.4761
 Red. masses --      2.5814                 2.6335                 2.8752
 Frc consts  --      0.1170                 0.1836                 0.2288
 IR Inten    --      0.3767                 0.1567                 0.1838

                     16                     17                     18
                      A                      A                      A
 Frequencies --    434.6402               467.7002               536.4277
 Red. masses --      2.3159                 2.9914                 2.3842
 Frc consts  --      0.2578                 0.3855                 0.4042
 IR Inten    --      3.6205                 0.5361                 0.4016

                     19                     20                     21
                      A                      A                      A
 Frequencies --    565.4248               634.6074               732.8134
 Red. masses --      3.4350                 1.3358                 1.4366
 Frc consts  --      0.6470                 0.3170                 0.4545
 IR Inten    --     41.3101                72.3579                11.2261

                     22                     23                     24
                      A                      A                      A
 Frequencies --    737.7368               748.9208               764.3386
 Red. masses --      1.4473                 1.2149                 1.3416
 Frc consts  --      0.4641                 0.4015                 0.4618
 IR Inten    --     26.9100                15.3639                10.3889

                     25                     26                     27
                      A                      A                      A
 Frequencies --    804.0877               851.0474               854.3961
 Red. masses --      1.6731                 2.4888                 1.4785
 Frc consts  --      0.6374                 1.0620                 0.6359
 IR Inten    --      3.4218                 3.5149                 0.2558

                     28                     29                     30
                      A                      A                      A
 Frequencies --    876.6001               906.8222               955.9726
 Red. masses --      2.2968                 1.6823                 2.0772
 Frc consts  --      1.0399                 0.8151                 1.1185
 IR Inten    --      1.7130                 1.2861                12.1518

                     31                     32                     33
                      A                      A                      A
 Frequencies --    967.0490               984.4862              1035.4229
 Red. masses --      1.4849                 1.8282                 2.4275
 Frc consts  --      0.8182                 1.0440                 1.5334
 IR Inten    --      2.5511                 1.6221                 0.5434

                     34                     35                     36
                      A                      A                      A
 Frequencies --   1045.5546              1055.7526              1067.1017
 Red. masses --      1.7177                 2.2931                 2.0370
 Frc consts  --      1.1064                 1.5059                 1.3666
 IR Inten    --      0.5974                 4.5935                55.8308

                     37                     38                     39
                      A                      A                      A
 Frequencies --   1087.7177              1095.2930              1127.3726
 Red. masses --      1.9639                 2.2605                 1.6059
 Frc consts  --      1.3690                 1.5978                 1.2025
 IR Inten    --      1.2773                 0.6591                40.5986

                     40                     41                     42
                      A                      A                      A
 Frequencies --   1143.3118              1166.7843              1205.5980
 Red. masses --      1.5760                 2.0826                 1.7439
 Frc consts  --      1.2137                 1.6704                 1.4934
 IR Inten    --      1.4400                56.4407                 4.9989

                     43                     44                     45
                      A                      A                      A
 Frequencies --   1237.5036              1255.7133              1276.3184
 Red. masses --      1.4544                 1.3985                 1.3487
 Frc consts  --      1.3123                 1.2993                 1.2945
 IR Inten    --     96.0281                 5.7792                 1.5823

                     46                     47                     48
                      A                      A                      A
 Frequencies --   1287.3565              1309.4676              1327.0042
 Red. masses --      1.2933                 1.2947                 1.2681
 Frc consts  --      1.2628                 1.3080                 1.3157
 IR Inten    --      1.9821                 6.9700                 1.1973

                     49                     50                     51
                      A                      A                      A
 Frequencies --   1334.1622              1345.3939              1346.0187
 Red. masses --      1.2086                 1.1816                 1.2162
 Frc consts  --      1.2675                 1.2601                 1.2982
 IR Inten    --      3.0273                 3.0449                 3.9408

                     52                     53                     54
                      A                      A                      A
 Frequencies --   1350.6650              1366.6763              1376.3306
 Red. masses --      1.1471                 1.4217                 1.3877
 Frc consts  --      1.2329                 1.5645                 1.5488
 IR Inten    --      6.9632                23.6675                 9.6634

                     55                     56                     57
                      A                      A                      A
 Frequencies --   1408.8482              1412.0542              1413.9350
 Red. masses --      1.6703                 1.6421                 1.5282
 Frc consts  --      1.9533                 1.9291                 1.8001
 IR Inten    --     15.7614                 6.6908                 7.2956

                     58                     59                     60
                      A                      A                      A
 Frequencies --   1423.4784              1427.4086              1490.8713
 Red. masses --      1.5814                 1.2686                 1.0858
 Frc consts  --      1.8880                 1.5229                 1.4220
 IR Inten    --      0.9460                 0.8541                 5.4073

                     61                     62                     63
                      A                      A                      A
 Frequencies --   1496.9300              1500.3455              1504.9151
 Red. masses --      1.0773                 1.0753                 1.1055
 Frc consts  --      1.4222                 1.4262                 1.4751
 IR Inten    --      3.3662                 0.5082                 5.7052

                     64                     65                     66
                      A                      A                      A
 Frequencies --   1505.5666              1509.4317              1510.7733
 Red. masses --      1.0790                 1.0674                 1.0979
 Frc consts  --      1.4410                 1.4329                 1.4764
 IR Inten    --      4.9324                 1.2035                 0.2243

                     67                     68                     69
                      A                      A                      A
 Frequencies --   1514.2980              1523.5971              1525.7981
 Red. masses --      1.0406                 1.0906                 1.0913
 Frc consts  --      1.4058                 1.4916                 1.4968
 IR Inten    --      5.4144                 2.9517                 1.4693

                     70                     71                     72
                      A                      A                      A
 Frequencies --   1841.8132              3010.8162              3013.4981
 Red. masses --      9.4617                 1.0603                 1.0644
 Frc consts  --     18.9108                 5.6628                 5.6949
 IR Inten    --    245.8554                 4.7783                 2.1843

                     73                     74                     75
                      A                      A                      A
 Frequencies --   3015.3443              3020.5861              3028.5424
 Red. masses --      1.0635                 1.0641                 1.0634
 Frc consts  --      5.6973                 5.7204                 5.7466
 IR Inten    --     15.7783                29.9962                56.6811

                     76                     77                     78
                      A                      A                      A
 Frequencies --   3029.3135              3036.8976              3043.3963
 Red. masses --      1.0634                 1.0365                 1.0692
 Frc consts  --      5.7496                 5.6321                 5.8346
 IR Inten    --     31.2299                44.4530                14.0775

                     79                     80                     81
                      A                      A                      A
 Frequencies --   3046.6464              3047.2623              3059.3556
 Red. masses --      1.0959                 1.0961                 1.0906
 Frc consts  --      5.9931                 5.9970                 6.0143
 IR Inten    --     16.0976                 9.3259                35.6059

                     82                     83                     84
                      A                      A                      A
 Frequencies --   3068.4436              3072.9771              3076.2156
 Red. masses --      1.1009                 1.1009                 1.0643
 Frc consts  --      6.1070                 6.1253                 5.9338
 IR Inten    --     14.9353                41.8226                17.3371

                     85                     86                     87
                      A                      A                      A
 Frequencies --   3087.1149              3093.5535              3105.9425
 Red. masses --      1.1016                 1.1038                 1.1029
 Frc consts  --      6.1856                 6.2241                 6.2684
 IR Inten    --     65.9434                52.0433                65.7321

                     88                     89                     90
                      A                      A                      A
 Frequencies --   3111.3366              3144.9786              3751.7304
 Red. masses --      1.1018                 1.1009                 1.0641
 Frc consts  --      6.2844                 6.4156                 8.8245
 IR Inten    --     43.1117                16.8227                46.9879

 - Thermochemistry -
 -------------------
 Temperature   298.150 Kelvin.  Pressure   1.00000 Atm.
 Atom     1 has atomic number  8 and mass  15.99491

 Molecular mass:   172.14633 amu.
 Principal axes and moments of inertia in atomic units:
                           1         2         3
     Eigenvalues --  1028.503176472.458776937.13779
           X            0.99988   0.01551  -0.00091
           Y           -0.01553   0.99944  -0.02971
           Z            0.00045   0.02972   0.99956
 This molecule is an asymmetric top.
 Rotational symmetry number  1.
 Warning -- assumption of classical behavior for rotation
           may cause significant error
 Rotational temperatures (Kelvin)      0.08421     0.01338     0.01249
 Rotational constants (GHZ):           1.75473     0.27883     0.26016
 Zero-point vibrational energy     765700.6 (Joules/Mol)
                                  183.00684 (Kcal/Mol)
 Warning -- explicit consideration of  19 degrees of freedom as
           vibrations may cause significant error
 Vibrational temperatures:     30.79    37.79    58.47    97.16   107.15
          (Kelvin)            142.53   180.03   196.20   256.23   291.63
                              353.55   387.51   399.03   494.97   528.72
                              625.35   672.92   771.80   813.52   913.06
                             1054.36  1061.44  1077.53  1099.71  1156.90
                             1224.47  1229.29  1261.23  1304.71  1375.43
                             1391.37  1416.46  1489.74  1504.32  1518.99
                             1535.32  1564.98  1575.88  1622.04  1644.97
                             1678.74  1734.59  1780.49  1806.69  1836.34
                             1852.22  1884.03  1909.26  1919.56  1935.72
                             1936.62  1943.31  1966.34  1980.23  2027.02
                             2031.63  2034.34  2048.07  2053.72  2145.03
                             2153.75  2158.66  2165.24  2166.17  2171.74
                             2173.67  2178.74  2192.12  2195.28  2649.96
                             4331.89  4335.75  4338.41  4345.95  4357.40
                             4358.51  4369.42  4378.77  4383.44  4384.33
                             4401.73  4414.81  4421.33  4425.99  4441.67
                             4450.93  4468.76  4476.52  4524.92  5397.90

 Zero-point correction=                           0.291640 (Hartree/Particle)
 Thermal correction to Energy=                    0.306381
 Thermal correction to Enthalpy=                  0.307326
 Thermal correction to Gibbs Free Energy=         0.246987
 Sum of electronic and zero-point Energies=           -543.376825
 Sum of electronic and thermal Energies=              -543.362083
 Sum of electronic and thermal Enthalpies=            -543.361139
 Sum of electronic and thermal Free Energies=         -543.421478

                     E (Thermal)             CV                S
                      KCal/Mol        Cal/Mol-Kelvin    Cal/Mol-Kelvin
 Total                  192.257             52.406            126.994
 Electronic               0.000              0.000              0.000
 Translational            0.889              2.981             41.337
 Rotational               0.889              2.981             32.202
 Vibrational            190.480             46.444             53.455
 Vibration     1          0.593              1.985              6.500
 Vibration     2          0.593              1.985              6.093
 Vibration     3          0.594              1.981              5.228
 Vibration     4          0.598              1.970              4.224
 Vibration     5          0.599              1.966              4.032
 Vibration     6          0.604              1.950              3.473
 Vibration     7          0.610              1.928              3.020
 Vibration     8          0.614              1.917              2.854
 Vibration     9          0.629              1.869              2.348
 Vibration    10          0.639              1.836              2.109
 Vibration    11          0.660              1.770              1.761
 Vibration    12          0.674              1.730              1.600
 Vibration    13          0.678              1.715              1.550
 Vibration    14          0.723              1.587              1.193
 Vibration    15          0.740              1.539              1.090
 Vibration    16          0.795              1.395              0.844
 Vibration    17          0.825              1.322              0.744
 Vibration    18          0.891              1.169              0.573
 Vibration    19          0.921              1.106              0.513

 Optimization completed.
    -- Stationary point found.
 Normal termination of Gaussian 16 at Thu Feb  3 08:29:04 2022.

 ----------------------------------------------------------------------
 # M062X/def2tzvp int=(grid=ultrafine) pop=nbo7 polar prop=efg volume g
 uess=read geom=check
 ----------------------------------------------------------------------

 -------
 Ac1.xyz
 -------
 Structure from the checkpoint file:  "Ac1_clust-23.chk"
 Charge =  0 Multiplicity = 1

 SCF Done:  E(RM062X) =  -543.543303031     A.U. after   11 cycles

  Exact polarizability:     148.380       5.179     118.694       2.515      -0.994     110.442
 Approx polarizability:     145.812       3.293     146.799       5.170       1.394     142.853

 Summary of Natural Population Analysis:

                                     Natural Population
             Natural    ---------------------------------------------
  Atom No    Charge        Core      Valence    Rydberg      Total
 --------------------------------------------------------------------
    O  1   -0.69411      2.00000     6.67187    0.02225     8.69411
    C  2    0.79724      1.99999     3.16449    0.03828     5.20276
    C  3   -0.51363      1.99999     4.50048    0.01315     6.51363
    C  4   -0.37916      1.99999     4.36868    0.01049     6.37916
    C  5   -0.39627      1.99999     4.38505    0.01123     6.39627
    C  6   -0.40072      1.99999     4.38911    0.01162     6.40072
    C  7   -0.39150      1.99999     4.38027    0.01124     6.39150
    C  8   -0.38688      1.99999     4.37606    0.01082     6.38688
    C  9   -0.38781      1.99999     4.37672    0.01109     6.38781
    C 10   -0.39734      1.99999     4.38696    0.01039     6.39734
    C 11   -0.60016      1.99999     4.59165    0.00852     6.60016
    O 12   -0.59860      2.00000     6.57221    0.02639     8.59860
    H 13    0.49352      0.00000     0.50304    0.00343     0.50648
    H 14    0.23475      0.00000     0.76398    0.00126     0.76525
    H 15    0.22941      0.00000     0.76923    0.00136     0.77059
    H 16    0.20601      0.00000     0.79228    0.00171     0.79399
    H 17    0.21397      0.00000     0.78451    0.00152     0.78603
    H 18    0.20494      0.00000     0.79344    0.00163     0.79506
    H 19    0.19762      0.00000     0.80030    0.00209     0.80238
    H 20    0.21002      0.00000     0.78800    0.00198     0.78998
    H 21    0.19015      0.00000     0.80784    0.00200     0.80985
    H 22    0.19759      0.00000     0.80056    0.00185     0.80241
    H 23    0.19082      0.00000     0.80721    0.00197     0.80918
    H 24    0.19777      0.00000     0.80055    0.00167     0.80223
    H 25    0.19592      0.00000     0.80218    0.00190     0.80408
    H 26    0.19843      0.00000     0.79985    0.00172     0.80157
    H 27    0.19100      0.00000     0.80701    0.00198     0.80900
    H 28    0.19486      0.00000     0.80331    0.00183     0.80514
    H 29    0.19503      0.00000     0.80328    0.00169     0.80497
    H 30    0.19984      0.00000     0.79889    0.00128     0.80016
    H 31    0.20768      0.00000     0.79135    0.00097     0.79232
    H 32    0.19959      0.00000     0.79910    0.00131     0.80041
 ====================================================================
 * Total *  0.00000     23.99992    71.77946    0.22062    96.00000

 1\1\GINC-NOTCH075\SP\RM062X\def2TZVP\C10H20O2\U6032257\03-Feb-2022\0\\
 # M062X/def2tzvp int=(grid=ultrafine) pop=nbo7 polar prop=efg volume g
 uess=read geom=check\\Ac1.xyz\\0,1\O,0,5.2483946719,0.3046976302,0.227
 6234974\C,0,5.2271735475,-0.9690603004,-0.2421764421\C,0,4.427532102,-
 1.883187528,0.6528252329\C,0,2.9155567292,-1.5826259366,0.5671101658\C
 ,0,2.3522791951,-1.5857620421,-0.8602592583\C,0,2.584222959,-2.8882897
 697,-1.632144441\C,0,1.8954844011,-2.900000924,-2.9993086709\C,0,2.147
 2278295,-4.191334986,-3.7843857823\C,0,1.4084859574,-4.2725302554,-5.1

 Normal termination of Gaussian 16 at Thu Feb  3 08:32:17 2022.
 Gaussian 16:  ES64L-G16RevC.01  3-Jul-2019

 --------------------------------------------------------------------
 # M062X/def2tzvp int=(grid=ultrafine) nmr=giao guess=read geom=check
 --------------------------------------------------------------------

 -------
 Ac1.xyz
 -------
 Structure from the checkpoint file:  "Ac1_clust-23.chk"
 Charge =  0 Multiplicity = 1

                         Standard orientation:
 ---------------------------------------------------------------------
 Center     Atomic      Atomic             Coordinates (Angstroms)
 Number     Number       Type             X           Y           Z
 ---------------------------------------------------------------------
      1          8           0       -4.092420    1.280515   -0.684368
      2          6           0       -3.228088    0.937578    0.305049
      3          6           0       -3.298343   -0.535100    0.624998
      4          6           0       -2.698433   -1.392650   -0.510110
      5          6           0       -1.275516   -0.989839   -0.919653
      6          6           0       -0.257070   -1.003345    0.224361
      7          6           0        1.172049   -0.724613   -0.248463
      8          6           0        2.188980   -0.711933    0.897380
      9          6           0        3.643901   -0.513777    0.452747
     10          6           0        3.931249    0.846266   -0.193037
     11          6           0        5.408821    1.033692   -0.543833
     12          8           0       -2.479307    1.742403    0.815707
     13          1           0       -3.948929    2.228168   -0.846797
     14          1           0       -4.344995   -0.816385    0.778406
     15          1           0       -2.757508   -0.688175    1.560042
     16          1           0       -2.704731   -2.437709   -0.177936
     17          1           0       -3.358239   -1.332796   -1.382013
     18          1           0       -0.940356   -1.668861   -1.714211
     19          1           0       -1.294690    0.012445   -1.368415
     20          1           0       -0.536101   -0.249802    0.970092
     21          1           0       -0.290144   -1.977829    0.732910
     22          1           0        1.188830    0.238526   -0.773799
     23          1           0        1.468619   -1.481970   -0.988399
     24          1           0        2.111017   -1.658736    1.448355
     25          1           0        1.916642    0.078033    1.611071
     26          1           0        4.301871   -0.635089    1.323677
     27          1           0        3.921393   -1.312536   -0.249951
     28          1           0        3.610102    1.643253    0.491276
     29          1           0        3.326695    0.963064   -1.100451
     30          1           0        5.747078    0.264470   -1.247320
     31          1           0        5.593236    2.009716   -1.003823
     32          1           0        6.038717    0.961193    0.349949
 ---------------------------------------------------------------------

 SCF Done:  E(RM062X) =  -543.543303031     A.U. after    1 cycles

      1  O    Isotropic =   104.0346   Anisotropy =   235.2773

      2  C    Isotropic =    -8.9756   Anisotropy =   130.4529

      3  C    Isotropic =   150.2839   Anisotropy =    38.8674

      4  C    Isotropic =   157.6369   Anisotropy =    11.8876

      5  C    Isotropic =   155.2971   Anisotropy =    26.1564

      6  C    Isotropic =   154.5965   Anisotropy =    28.7396

      7  C    Isotropic =   152.5578   Anisotropy =    30.8850

      8  C    Isotropic =   151.8326   Anisotropy =    26.3941

      9  C    Isotropic =   150.1830   Anisotropy =    27.8141

     10  C    Isotropic =   161.1737   Anisotropy =    15.5037

     11  C    Isotropic =   170.2079   Anisotropy =    28.2811

     12  O    Isotropic =  -177.4362   Anisotropy =   626.6101

     13  H    Isotropic =    25.8278   Anisotropy =    11.0048

     14  H    Isotropic =    29.5254   Anisotropy =     8.0136

     15  H    Isotropic =    29.5278   Anisotropy =     4.5655

     16  H    Isotropic =    30.4396   Anisotropy =     8.4346

     17  H    Isotropic =    29.9293   Anisotropy =     9.3254

     18  H    Isotropic =    30.5631   Anisotropy =     7.2900

     19  H    Isotropic =    30.6887   Anisotropy =     4.9450

     20  H    Isotropic =    30.0628   Anisotropy =     6.8160

     21  H    Isotropic =    31.0914   Anisotropy =     5.4128

     22  H    Isotropic =    30.4791   Anisotropy =     6.4859

     23  H    Isotropic =    31.0664   Anisotropy =     5.2322

     24  H    Isotropic =    30.4599   Anisotropy =     6.7682

     25  H    Isotropic =    30.6115   Anisotropy =     5.4659

     26  H    Isotropic =    30.5008   Anisotropy =     7.6251

     27  H    Isotropic =    30.7618   Anisotropy =     5.8099

     28  H    Isotropic =    30.9055   Anisotropy =     6.7151

     29  H    Isotropic =    30.3747   Anisotropy =     6.5197

     30  H    Isotropic =    31.1241   Anisotropy =     8.7166

     31  H    Isotropic =    30.7563   Anisotropy =    10.7967

     32  H    Isotropic =    31.0890   Anisotropy =     9.0123

 The electronic state is 1-A.
 Alpha  occ. eigenvalues --  -19.67613 -19.62177 -10.67946 -10.55326 -10.54586
 Alpha  occ. eigenvalues --  -10.53307 -10.52599 -10.52475 -10.52471 -10.52415
 Alpha  occ. eigenvalues --  -10.52381 -10.51880  -1.23596  -1.14018  -0.92037
 Alpha  occ. eigenvalues --   -0.89984  -0.86654  -0.82609  -0.78165  -0.72987
 Alpha  occ. eigenvalues --   -0.69881  -0.68012  -0.65055  -0.64103  -0.58336
 Alpha  occ. eigenvalues --   -0.57299  -0.55242  -0.53812  -0.52814  -0.52322
 Alpha  occ. eigenvalues --   -0.49713  -0.49206  -0.48351  -0.47068  -0.46651
 Alpha  occ. eigenvalues --   -0.44725  -0.43615  -0.42852  -0.41551  -0.40635
 Alpha  occ. eigenvalues --   -0.40246  -0.39432  -0.38916  -0.37961  -0.37494
 Alpha  occ. eigenvalues --   -0.36523  -0.36079  -0.35378
 Alpha virt. eigenvalues --    0.03995   0.05837   0.07128   0.08059   0.08718
 Alpha virt. eigenvalues --    0.09192   0.09885   0.10842   0.11356   0.12482
 Alpha virt. eigenvalues --    0.13538   0.13628   0.14647   0.14915   0.15379

 Mulliken charges:
               1
     1  O   -0.407461
     2  C    0.334912
     3  C   -0.330027
     4  C   -0.285133
     5  C   -0.306337
     6  C   -0.302218
     7  C   -0.306235
     8  C   -0.271070
     9  C   -0.278264
    10  C   -0.255380
    11  C   -0.429093
    12  O   -0.332858
    13  H    0.335372
    14  H    0.169450
    15  H    0.180049
    16  H    0.153578
    17  H    0.164946
    18  H    0.148881
    19  H    0.164427
    20  H    0.166633
    21  H    0.144229
    22  H    0.149349
    23  H    0.140457
    24  H    0.138303
    25  H    0.153919
    26  H    0.139120
    27  H    0.141250
    28  H    0.134144
    29  H    0.132627
    30  H    0.135187
    31  H    0.140935
    32  H    0.136308
 Sum of Mulliken charges =  -0.00000

 Dipole moment (field-independent basis, Debye):
    X=             -0.8559    Y=             -1.1541    Z=             -0.8770  Tot=              1.6834
 Quadrupole moment (field-independent basis, Debye-Ang):
   XX=            -74.8722   YY=            -75.9509   ZZ=            -78.1268
   XY=              0.5504   XZ=              1.4357   YZ=             -4.0045

 1\1\GINC-NOTCH075\SP\RM062X\def2TZVP\C10H20O2\U6032257\03-Feb-2022\0\\
 # M062X/def2tzvp int=(grid=ultrafine) nmr=giao guess=read geom=check\\
 Ac1.xyz\\0,1\O,0,5.2483946719,0.3046976302,0.2276234974\C,0,5.22717354
 75,-0.9690603004,-0.2421764421\C,0,4.427532102,-1.883187528,0.65282523
 29\C,0,2.9155567292,-1.5826259366,0.5671101658\C,0,2.3522791951,-1.585
 7620421,-0.8602592583\C,0,2.584222959,-2.8882897697,-1.632144441\C,0,1
 .8954844011,-2.900000924,-2.9993086709\C,0,2.1472278295,-4.191334986,-
 3.7843857823\C,0,1.4084859574,-4.2725302554,-5.1265591031\C,0,1.847370

 Normal termination of Gaussian 16 at Thu Feb  3 08:33:37 2022.
