 Gaussian 16, Revision C.01,

 ----------------------------------------------------------------------
 # B3LYP/6-31G(d,p) empiricaldispersion=GD3BJ int=(grid=ultrafine) opt
 freq=noraman
 ----------------------------------------------------------------------

 -------
 Ac1.xyz
 -------
 Symbolic Z-matrix:
 Charge =  0 Multiplicity = 1

 SCF Done:  E(RB3LYP) =  -543.663849569     A.U. after   14 cycles
 SCF Done:  E(RB3LYP) =  -543.666343091     A.U. after   12 cycles
 SCF Done:  E(RB3LYP) =  -543.665973256     A.U. after   11 cycles
 SCF Done:  E(RB3LYP) =  -543.666569849     A.U. after   11 cycles
 SCF Done:  E(RB3LYP) =  -543.666590132     A.U. after   10 cycles
 SCF Done:  E(RB3LYP) =  -543.666593115     A.U. after    9 cycles
 SCF Done:  E(RB3LYP) =  -543.666596555     A.U. after    9 cycles
 SCF Done:  E(RB3LYP) =  -543.666597897     A.U. after    8 cycles
 SCF Done:  E(RB3LYP) =  -543.666600552     A.U. after    9 cycles
 SCF Done:  E(RB3LYP) =  -543.666601811     A.U. after    9 cycles
 SCF Done:  E(RB3LYP) =  -543.666602769     A.U. after    9 cycles
 SCF Done:  E(RB3LYP) =  -543.666603170     A.U. after    9 cycles
 SCF Done:  E(RB3LYP) =  -543.666603074     A.U. after    8 cycles
 SCF Done:  E(RB3LYP) =  -543.666603131     A.U. after    6 cycles
 Optimization completed.
    -- Stationary point found.
 Normal termination of Gaussian 16 at Thu Feb  3 10:28:31 2022.

 ----------------------------------------------------------------------
 #N Geom=AllCheck Guess=TCheck SCRF=Check GenChk RB3LYP/6-31G(d,p) Freq
 ----------------------------------------------------------------------

 Structure from the checkpoint file:  "Ac1_clust-37.chk"
 -------
 Ac1.xyz
 -------
 Charge =  0 Multiplicity = 1

 SCF Done:  E(RB3LYP) =  -543.666603131     A.U. after    1 cycles

                      1                      2                      3
                      A                      A                      A
 Frequencies --     20.7041                27.4002                39.9331
 Red. masses --      9.0590                 4.1954                 3.4464
 Frc consts  --      0.0023                 0.0019                 0.0032
 IR Inten    --      0.9829                 0.2427                 0.0632

                      4                      5                      6
                      A                      A                      A
 Frequencies --     49.3407                74.4443                87.0515
 Red. masses --      3.5010                 2.9135                 4.0837
 Frc consts  --      0.0050                 0.0095                 0.0182
 IR Inten    --      0.1698                 0.0193                 0.0458

                      7                      8                      9
                      A                      A                      A
 Frequencies --    138.7215               175.6796               221.8989
 Red. masses --      2.0831                 2.3936                 1.6364
 Frc consts  --      0.0236                 0.0435                 0.0475
 IR Inten    --      0.0455                 0.0370                 0.1590

                     10                     11                     12
                      A                      A                      A
 Frequencies --    234.9874               275.2198               300.7630
 Red. masses --      1.9170                 2.0425                 1.7665
 Frc consts  --      0.0624                 0.0912                 0.0941
 IR Inten    --      0.0695                 0.0521                 0.0141

                     13                     14                     15
                      A                      A                      A
 Frequencies --    330.7496               369.0061               408.9902
 Red. masses --      2.2784                 2.1208                 1.9245
 Frc consts  --      0.1469                 0.1701                 0.1897
 IR Inten    --      0.4357                 0.5147                 0.3075

                     16                     17                     18
                      A                      A                      A
 Frequencies --    448.6306               483.2346               547.2095
 Red. masses --      2.4011                 2.1480                 2.5952
 Frc consts  --      0.2847                 0.2955                 0.4579
 IR Inten    --      2.6305                 1.4898                 9.5191

                     19                     20                     21
                      A                      A                      A
 Frequencies --    569.5553               624.1194               706.5313
 Red. masses --      3.4283                 1.4003                 1.3240
 Frc consts  --      0.6552                 0.3214                 0.3894
 IR Inten    --     30.2919                61.8231                 7.5394

                     22                     23                     24
                      A                      A                      A
 Frequencies --    710.5743               735.1904               772.3481
 Red. masses --      1.5377                 1.5182                 1.6581
 Frc consts  --      0.4574                 0.4835                 0.5828
 IR Inten    --     60.5833                 5.8217                13.5183

                     25                     26                     27
                      A                      A                      A
 Frequencies --    815.8208               819.4508               848.3804
 Red. masses --      2.2903                 2.0302                 2.1671
 Frc consts  --      0.8981                 0.8032                 0.9190
 IR Inten    --      2.1919                 2.4094                 2.5452

                     28                     29                     30
                      A                      A                      A
 Frequencies --    877.2493               898.6748               935.2423
 Red. masses --      1.9491                 1.7218                 1.6913
 Frc consts  --      0.8837                 0.8193                 0.8716
 IR Inten    --      3.4414                 1.5290                 1.7451

                     31                     32                     33
                      A                      A                      A
 Frequencies --    965.1135               980.1765              1011.7187
 Red. masses --      1.7008                 1.8117                 1.7779
 Frc consts  --      0.9334                 1.0255                 1.0722
 IR Inten    --      1.5518                 1.6112                 8.0341

                     34                     35                     36
                      A                      A                      A
 Frequencies --   1025.9699              1056.8532              1068.6119
 Red. masses --      1.9525                 1.5662                 1.5617
 Frc consts  --      1.2109                 1.0307                 1.0507
 IR Inten    --      1.7941                11.4410                10.6203

                     37                     38                     39
                      A                      A                      A
 Frequencies --   1073.3995              1110.0740              1117.8385
 Red. masses --      2.0935                 1.6775                 1.9532
 Frc consts  --      1.4211                 1.2179                 1.4380
 IR Inten    --     11.2435                42.9500                21.2249

                     40                     41                     42
                      A                      A                      A
 Frequencies --   1141.0738              1172.6660              1201.4946
 Red. masses --      1.8952                 2.0219                 1.3186
 Frc consts  --      1.4539                 1.6382                 1.1216
 IR Inten    --      0.0075                26.8964                 3.3407

                     43                     44                     45
                      A                      A                      A
 Frequencies --   1220.1608              1246.6792              1250.0636
 Red. masses --      1.6685                 1.3599                 1.3181
 Frc consts  --      1.4635                 1.2453                 1.2136
 IR Inten    --     91.9646                 9.9200                14.0726

                     46                     47                     48
                      A                      A                      A
 Frequencies --   1287.2097              1309.9793              1328.6207
 Red. masses --      1.2750                 1.2203                 1.2730
 Frc consts  --      1.2447                 1.2338                 1.3239
 IR Inten    --      0.2683                 0.8416                 8.7923

                     49                     50                     51
                      A                      A                      A
 Frequencies --   1331.7412              1348.4694              1363.3995
 Red. masses --      1.2588                 1.1331                 1.3300
 Frc consts  --      1.3153                 1.2139                 1.4566
 IR Inten    --      3.1817                 5.1714                 5.6975

                     52                     53                     54
                      A                      A                      A
 Frequencies --   1370.0836              1379.7356              1389.7514
 Red. masses --      1.3628                 1.6375                 1.7639
 Frc consts  --      1.5072                 1.8366                 2.0073
 IR Inten    --      8.5053                 5.4530                25.1422

                     55                     56                     57
                      A                      A                      A
 Frequencies --   1394.3699              1410.1193              1413.7615
 Red. masses --      1.3791                 1.4701                 1.4210
 Frc consts  --      1.5798                 1.7223                 1.6734
 IR Inten    --      2.9894                 5.8189                 2.0501

                     58                     59                     60
                      A                      A                      A
 Frequencies --   1425.8164              1430.3565              1484.4004
 Red. masses --      1.5423                 1.2933                 1.0907
 Frc consts  --      1.8473                 1.5590                 1.4159
 IR Inten    --      3.8193                 4.1040                 8.2262

                     61                     62                     63
                      A                      A                      A
 Frequencies --   1487.8298              1500.1062              1501.9481
 Red. masses --      1.0751                 1.0850                 1.0874
 Frc consts  --      1.4022                 1.4386                 1.4452
 IR Inten    --      0.6844                 0.9936                 2.6462

                     64                     65                     66
                      A                      A                      A
 Frequencies --   1505.4921              1510.4796              1515.8415
 Red. masses --      1.0750                 1.0840                 1.0600
 Frc consts  --      1.4355                 1.4571                 1.4350
 IR Inten    --      9.0469                 1.5264                 8.3290

                     67                     68                     69
                      A                      A                      A
 Frequencies --   1517.8995              1520.7163              1528.4922
 Red. masses --      1.0853                 1.0647                 1.0837
 Frc consts  --      1.4732                 1.4506                 1.4917
 IR Inten    --      5.0892                 2.7210                 1.9938

                     70                     71                     72
                      A                      A                      A
 Frequencies --   1849.1696              3025.7291              3028.6782
 Red. masses --      9.6326                 1.0631                 1.0640
 Frc consts  --     19.4065                 5.7344                 5.7503
 IR Inten    --    268.0227                23.2685                27.4933

                     73                     74                     75
                      A                      A                      A
 Frequencies --   3031.1377              3033.3320              3035.3771
 Red. masses --      1.0603                 1.0622                 1.0612
 Frc consts  --      5.7399                 5.7585                 5.7607
 IR Inten    --     14.7873                21.3574                10.1549

                     76                     77                     78
                      A                      A                      A
 Frequencies --   3040.4171              3044.9654              3052.3284
 Red. masses --      1.0401                 1.0626                 1.0628
 Frc consts  --      5.6648                 5.8050                 5.8340
 IR Inten    --     22.9406                 1.6055                28.5840

                     79                     80                     81
                      A                      A                      A
 Frequencies --   3059.4500              3060.0492              3061.7244
 Red. masses --      1.0774                 1.0861                 1.0967
 Frc consts  --      5.9418                 5.9923                 6.0573
 IR Inten    --     12.3983                 5.6941                 5.1573

                     82                     83                     84
                      A                      A                      A
 Frequencies --   3064.7469              3070.0200              3078.6870
 Red. masses --      1.0990                 1.1007                 1.1018
 Frc consts  --      6.0820                 6.1120                 6.1531
 IR Inten    --     33.7196                82.5502               115.2913

                     85                     86                     87
                      A                      A                      A
 Frequencies --   3080.3081              3098.5459              3108.5744
 Red. masses --      1.1005                 1.1049                 1.1017
 Frc consts  --      6.1522                 6.2499                 6.2725
 IR Inten    --     59.6697                35.0797                47.7471

                     88                     89                     90
                      A                      A                      A
 Frequencies --   3115.2257              3128.0746              3754.4385
 Red. masses --      1.1019                 1.0994                 1.0641
 Frc consts  --      6.3007                 6.3383                 8.8377
 IR Inten    --     47.0156                20.1174                50.3264

 - Thermochemistry -
 -------------------
 Temperature   298.150 Kelvin.  Pressure   1.00000 Atm.
 Atom     1 has atomic number  8 and mass  15.99491

 Molecular mass:   172.14633 amu.
 Principal axes and moments of inertia in atomic units:
                           1         2         3
     Eigenvalues --   750.107286390.938216509.48623
           X            0.99998  -0.00611   0.00267
           Y            0.00615   0.99987  -0.01476
           Z           -0.00258   0.01478   0.99989
 This molecule is an asymmetric top.
 Rotational symmetry number  1.
 Warning -- assumption of classical behavior for rotation
           may cause significant error
 Rotational temperatures (Kelvin)      0.11547     0.01355     0.01331
 Rotational constants (GHZ):           2.40598     0.28239     0.27725
 Zero-point vibrational energy     767204.6 (Joules/Mol)
                                  183.36630 (Kcal/Mol)
 Warning -- explicit consideration of  19 degrees of freedom as
           vibrations may cause significant error
 Vibrational temperatures:     29.79    39.42    57.45    70.99   107.11
          (Kelvin)            125.25   199.59   252.76   319.26   338.09
                              395.98   432.73   475.87   530.92   588.45
                              645.48   695.27   787.31   819.46   897.97
                             1016.54  1022.36  1057.78  1111.24  1173.78
                             1179.01  1220.63  1262.17  1292.99  1345.61
                             1388.58  1410.26  1455.64  1476.14  1520.58
                             1537.49  1544.38  1597.15  1608.32  1641.75
                             1687.20  1728.68  1755.54  1793.69  1798.56
                             1852.01  1884.77  1911.59  1916.08  1940.15
                             1961.63  1971.24  1985.13  1999.54  2006.19
                             2028.85  2034.09  2051.43  2057.96  2135.72
                             2140.66  2158.32  2160.97  2166.07  2173.24
                             2180.96  2183.92  2187.97  2199.16  2660.54
                             4353.35  4357.59  4361.13  4364.29  4367.23
                             4374.48  4381.03  4391.62  4401.87  4402.73
                             4405.14  4409.49  4417.07  4429.54  4431.88
                             4458.12  4472.55  4482.11  4500.60  5401.80

 Zero-point correction=                           0.292213 (Hartree/Particle)
 Thermal correction to Energy=                    0.306603
 Thermal correction to Enthalpy=                  0.307548
 Thermal correction to Gibbs Free Energy=         0.248056
 Sum of electronic and zero-point Energies=           -543.374390
 Sum of electronic and thermal Energies=              -543.360000
 Sum of electronic and thermal Enthalpies=            -543.359056
 Sum of electronic and thermal Free Energies=         -543.418547

                     E (Thermal)             CV                S
                      KCal/Mol        Cal/Mol-Kelvin    Cal/Mol-Kelvin
 Total                  192.397             52.080            125.210
 Electronic               0.000              0.000              0.000
 Translational            0.889              2.981             41.337
 Rotational               0.889              2.981             31.812
 Vibrational            190.619             46.119             52.061
 Vibration     1          0.593              1.986              6.565
 Vibration     2          0.593              1.984              6.009
 Vibration     3          0.594              1.981              5.262
 Vibration     4          0.595              1.978              4.844
 Vibration     5          0.599              1.966              4.032
 Vibration     6          0.601              1.958              3.725
 Vibration     7          0.614              1.915              2.821
 Vibration     8          0.628              1.872              2.374
 Vibration     9          0.648              1.808              1.944
 Vibration    10          0.655              1.787              1.841
 Vibration    11          0.677              1.719              1.563
 Vibration    12          0.693              1.672              1.413
 Vibration    13          0.713              1.614              1.256
 Vibration    14          0.741              1.536              1.084
 Vibration    15          0.773              1.451              0.930
 Vibration    16          0.808              1.364              0.800
 Vibration    17          0.839              1.287              0.701
 Vibration    18          0.902              1.146              0.550
 Vibration    19          0.926              1.097              0.505

 Optimization completed.
    -- Stationary point found.
 Normal termination of Gaussian 16 at Thu Feb  3 10:30:05 2022.

 ----------------------------------------------------------------------
 # M062X/def2tzvp int=(grid=ultrafine) pop=nbo7 polar prop=efg volume g
 uess=read geom=check
 ----------------------------------------------------------------------

 -------
 Ac1.xyz
 -------
 Structure from the checkpoint file:  "Ac1_clust-37.chk"
 Charge =  0 Multiplicity = 1

 SCF Done:  E(RM062X) =  -543.542553870     A.U. after   11 cycles

  Exact polarizability:     147.565       1.944     114.985      -1.975       0.128     110.894
 Approx polarizability:     143.672       2.590     150.718      -3.183       0.328     141.164

 Summary of Natural Population Analysis:

                                     Natural Population
             Natural    ---------------------------------------------
  Atom No    Charge        Core      Valence    Rydberg      Total
 --------------------------------------------------------------------
    O  1   -0.69757      2.00000     6.67541    0.02216     8.69757
    C  2    0.79477      1.99999     3.16705    0.03819     5.20523
    C  3   -0.50586      1.99999     4.49268    0.01319     6.50586
    C  4   -0.39208      1.99999     4.38069    0.01139     6.39208
    C  5   -0.40390      1.99999     4.39203    0.01188     6.40390
    C  6   -0.39568      1.99999     4.38423    0.01145     6.39568
    C  7   -0.40320      1.99999     4.39170    0.01151     6.40320
    C  8   -0.40326      1.99999     4.39179    0.01147     6.40326
    C  9   -0.39789      1.99999     4.38633    0.01157     6.39789
    C 10   -0.39883      1.99999     4.38808    0.01076     6.39883
    C 11   -0.61067      1.99999     4.60159    0.00909     6.61067
    O 12   -0.59170      2.00000     6.56532    0.02638     8.59170
    H 13    0.49427      0.00000     0.50226    0.00346     0.50573
    H 14    0.22842      0.00000     0.77011    0.00147     0.77158
    H 15    0.23602      0.00000     0.76269    0.00129     0.76398
    H 16    0.21244      0.00000     0.78573    0.00184     0.78756
    H 17    0.20650      0.00000     0.79180    0.00170     0.79350
    H 18    0.19833      0.00000     0.79971    0.00196     0.80167
    H 19    0.20617      0.00000     0.79207    0.00177     0.79383
    H 20    0.20259      0.00000     0.79576    0.00165     0.79741
    H 21    0.20335      0.00000     0.79502    0.00163     0.79665
    H 22    0.20333      0.00000     0.79507    0.00160     0.79667
    H 23    0.20148      0.00000     0.79699    0.00153     0.79852
    H 24    0.19942      0.00000     0.79897    0.00161     0.80058
    H 25    0.20416      0.00000     0.79431    0.00153     0.79584
    H 26    0.20161      0.00000     0.79673    0.00165     0.79839
    H 27    0.19972      0.00000     0.79872    0.00156     0.80028
    H 28    0.20305      0.00000     0.79544    0.00152     0.79695
    H 29    0.19341      0.00000     0.80477    0.00182     0.80659
    H 30    0.20114      0.00000     0.79753    0.00133     0.79886
    H 31    0.21041      0.00000     0.78862    0.00097     0.78959
    H 32    0.20005      0.00000     0.79872    0.00123     0.79995
 ====================================================================
 * Total *  0.00000     23.99992    71.77793    0.22215    96.00000

 1\1\GINC-NOTCH075\SP\RM062X\def2TZVP\C10H20O2\U6032257\03-Feb-2022\0\\
 # M062X/def2tzvp int=(grid=ultrafine) pop=nbo7 polar prop=efg volume g
 uess=read geom=check\\Ac1.xyz\\0,1\O,0,5.6705985213,-0.8686427901,0.49
 6266344\C,0,4.583183114,-0.1318201958,0.147347745\C,0,3.3169137256,-0.
 9562603131,0.1707207328\C,0,3.3960895142,-2.2136177838,-0.7110493019\C
 ,0,3.650141379,-1.8922486,-2.1868328791\C,0,3.7712515123,-3.1335617742
 ,-3.0818184236\C,0,2.532914191,-4.0439567902,-3.1082286713\C,0,1.22530
 11535,-3.348380219,-3.5161916588\C,0,1.2600892002,-2.6549062541,-4.887

 Normal termination of Gaussian 16 at Thu Feb  3 10:33:38 2022.
 Gaussian 16:  ES64L-G16RevC.01  3-Jul-2019

 --------------------------------------------------------------------
 # M062X/def2tzvp int=(grid=ultrafine) nmr=giao guess=read geom=check
 --------------------------------------------------------------------

 -------
 Ac1.xyz
 -------
 Structure from the checkpoint file:  "Ac1_clust-37.chk"
 Charge =  0 Multiplicity = 1

                         Standard orientation:
 ---------------------------------------------------------------------
 Center     Atomic      Atomic             Coordinates (Angstroms)
 Number     Number       Type             X           Y           Z
 ---------------------------------------------------------------------
      1          8           0        4.128983   -0.671187   -0.717739
      2          6           0        3.724684    0.387110    0.033043
      3          6           0        2.764859   -0.032792    1.122127
      4          6           0        1.537015   -0.789714    0.589018
      5          6           0        0.705637    0.039535   -0.394300
      6          6           0       -0.505135   -0.708204   -0.970009
      7          6           0       -1.530736   -1.189746    0.068864
      8          6           0       -2.099925   -0.088868    0.976721
      9          6           0       -2.774398    1.077291    0.237083
     10          6           0       -3.926110    0.676826   -0.696873
     11          6           0       -5.079179   -0.040115    0.010655
     12          8           0        4.112843    1.513950   -0.180477
     13          1           0        4.732759   -0.305717   -1.385954
     14          1           0        2.468952    0.875901    1.651602
     15          1           0        3.315610   -0.670187    1.824074
     16          1           0        1.867255   -1.715100    0.104103
     17          1           0        0.922986   -1.083854    1.446919
     18          1           0        0.377692    0.962706    0.100150
     19          1           0        1.345858    0.357360   -1.226842
     20          1           0       -1.003007   -0.056960   -1.698312
     21          1           0       -0.148280   -1.577279   -1.538027
     22          1           0       -2.351888   -1.687109   -0.461452
     23          1           0       -1.078094   -1.963937    0.700239
     24          1           0       -1.298671    0.316735    1.606990
     25          1           0       -2.816451   -0.545451    1.669915
     26          1           0       -3.154040    1.788298    0.982798
     27          1           0       -2.022358    1.624772   -0.344312
     28          1           0       -4.309036    1.582213   -1.183651
     29          1           0       -3.544054    0.041353   -1.505621
     30          1           0       -5.472831    0.566344    0.834434
     31          1           0       -5.904407   -0.239963   -0.680029
     32          1           0       -4.762879   -1.000165    0.430726
 ---------------------------------------------------------------------

 SCF Done:  E(RM062X) =  -543.542553870     A.U. after    1 cycles

      1  O    Isotropic =   106.4467   Anisotropy =   232.7795

      2  C    Isotropic =    -8.6903   Anisotropy =   128.7593

      3  C    Isotropic =   146.6360   Anisotropy =    29.2269

      4  C    Isotropic =   159.7929   Anisotropy =    16.0329

      5  C    Isotropic =   159.9293   Anisotropy =    25.4222

      6  C    Isotropic =   160.6405   Anisotropy =    20.6980

      7  C    Isotropic =   165.6467   Anisotropy =    19.7303

      8  C    Isotropic =   166.0825   Anisotropy =    20.1167

      9  C    Isotropic =   159.1673   Anisotropy =    21.4971

     10  C    Isotropic =   166.3260   Anisotropy =    13.9404

     11  C    Isotropic =   173.8571   Anisotropy =    21.1136

     12  O    Isotropic =  -182.4733   Anisotropy =   630.2712

     13  H    Isotropic =    25.8356   Anisotropy =    11.2589

     14  H    Isotropic =    29.8056   Anisotropy =     6.0227

     15  H    Isotropic =    29.3983   Anisotropy =     8.0787

     16  H    Isotropic =    30.3626   Anisotropy =     7.3501

     17  H    Isotropic =    30.2980   Anisotropy =     6.2615

     18  H    Isotropic =    30.6391   Anisotropy =     5.1886

     19  H    Isotropic =    30.6663   Anisotropy =     7.9626

     20  H    Isotropic =    30.3398   Anisotropy =     7.2106

     21  H    Isotropic =    30.6867   Anisotropy =     9.0707

     22  H    Isotropic =    30.5036   Anisotropy =     7.9457

     23  H    Isotropic =    30.5487   Anisotropy =     7.9707

     24  H    Isotropic =    30.5932   Anisotropy =     7.4712

     25  H    Isotropic =    30.4690   Anisotropy =     8.3040

     26  H    Isotropic =    30.7452   Anisotropy =     9.4276

     27  H    Isotropic =    30.3341   Anisotropy =     6.8041

     28  H    Isotropic =    30.5765   Anisotropy =    10.1418

     29  H    Isotropic =    30.5452   Anisotropy =     5.9037

     30  H    Isotropic =    31.3919   Anisotropy =     9.8860

     31  H    Isotropic =    30.8934   Anisotropy =    11.2989

     32  H    Isotropic =    30.8901   Anisotropy =     6.6589

 The electronic state is 1-A.
 Alpha  occ. eigenvalues --  -19.67507 -19.62060 -10.67866 -10.55425 -10.54359
 Alpha  occ. eigenvalues --  -10.53405 -10.53147 -10.52972 -10.52944 -10.52881
 Alpha  occ. eigenvalues --  -10.52804 -10.52243  -1.23503  -1.13938  -0.92404
 Alpha  occ. eigenvalues --   -0.90206  -0.86727  -0.82390  -0.78081  -0.74531
 Alpha  occ. eigenvalues --   -0.71062  -0.68290  -0.65754  -0.61701  -0.58172
 Alpha  occ. eigenvalues --   -0.57101  -0.55613  -0.54691  -0.53977  -0.51926
 Alpha  occ. eigenvalues --   -0.50211  -0.49498  -0.48454  -0.46999  -0.46241
 Alpha  occ. eigenvalues --   -0.45653  -0.43891  -0.43373  -0.42751  -0.40645
 Alpha  occ. eigenvalues --   -0.40158  -0.39542  -0.39452  -0.38693  -0.37134
 Alpha  occ. eigenvalues --   -0.36520  -0.36350  -0.35334
 Alpha virt. eigenvalues --    0.04101   0.05599   0.06564   0.07446   0.07834
 Alpha virt. eigenvalues --    0.09071   0.10087   0.10540   0.11075   0.12818
 Alpha virt. eigenvalues --    0.13465   0.13630   0.14305   0.14983   0.15371

 Mulliken charges:
               1
     1  O   -0.409051
     2  C    0.317364
     3  C   -0.290791
     4  C   -0.300806
     5  C   -0.314492
     6  C   -0.304248
     7  C   -0.344991
     8  C   -0.333522
     9  C   -0.291928
    10  C   -0.260402
    11  C   -0.435474
    12  O   -0.327156
    13  H    0.336346
    14  H    0.166141
    15  H    0.166340
    16  H    0.170590
    17  H    0.153294
    18  H    0.163713
    19  H    0.161529
    20  H    0.163931
    21  H    0.155335
    22  H    0.164947
    23  H    0.165267
    24  H    0.155413
    25  H    0.167295
    26  H    0.150316
    27  H    0.151745
    28  H    0.138082
    29  H    0.140181
    30  H    0.141750
    31  H    0.144010
    32  H    0.139271
 Sum of Mulliken charges =  -0.00000

 Dipole moment (field-independent basis, Debye):
    X=             -0.9303    Y=             -1.6588    Z=              0.1028  Tot=              1.9046
 Quadrupole moment (field-independent basis, Debye-Ang):
   XX=            -80.1923   YY=            -83.1564   ZZ=            -73.8854
   XY=             -8.0840   XZ=             -1.3837   YZ=              0.2182

 1\1\GINC-NOTCH075\SP\RM062X\def2TZVP\C10H20O2\U6032257\03-Feb-2022\0\\
 # M062X/def2tzvp int=(grid=ultrafine) nmr=giao guess=read geom=check\\
 Ac1.xyz\\0,1\O,0,5.6705985213,-0.8686427901,0.496266344\C,0,4.58318311
 4,-0.1318201958,0.147347745\C,0,3.3169137256,-0.9562603131,0.170720732
 8\C,0,3.3960895142,-2.2136177838,-0.7110493019\C,0,3.650141379,-1.8922
 486,-2.1868328791\C,0,3.7712515123,-3.1335617742,-3.0818184236\C,0,2.5
 32914191,-4.0439567902,-3.1082286713\C,0,1.2253011535,-3.348380219,-3.
 5161916588\C,0,1.2600892002,-2.6549062541,-4.8872456493\C,0,1.62850469

 Normal termination of Gaussian 16 at Thu Feb  3 10:35:04 2022.
