 Gaussian 16, Revision C.01,

 ----------------------------------------------------------------------
 # B3LYP/6-31G(d,p) empiricaldispersion=GD3BJ int=(grid=ultrafine) opt
 freq=noraman
 ----------------------------------------------------------------------

 -------
 Ac1.xyz
 -------
 Symbolic Z-matrix:
 Charge =  0 Multiplicity = 1

 SCF Done:  E(RB3LYP) =  -543.665881454     A.U. after   13 cycles
 SCF Done:  E(RB3LYP) =  -543.616667575     A.U. after   14 cycles
 SCF Done:  E(RB3LYP) =  -543.668512733     A.U. after   13 cycles
 SCF Done:  E(RB3LYP) =  -543.669832279     A.U. after   12 cycles
 SCF Done:  E(RB3LYP) =  -543.670523690     A.U. after   11 cycles
 SCF Done:  E(RB3LYP) =  -543.670522058     A.U. after   11 cycles
 SCF Done:  E(RB3LYP) =  -543.670660669     A.U. after   10 cycles
 SCF Done:  E(RB3LYP) =  -543.670653552     A.U. after   10 cycles
 SCF Done:  E(RB3LYP) =  -543.670684647     A.U. after   10 cycles
 SCF Done:  E(RB3LYP) =  -543.670698523     A.U. after    9 cycles
 SCF Done:  E(RB3LYP) =  -543.670698061     A.U. after    9 cycles
 SCF Done:  E(RB3LYP) =  -543.670698261     A.U. after    9 cycles
 SCF Done:  E(RB3LYP) =  -543.670700334     A.U. after    8 cycles
 SCF Done:  E(RB3LYP) =  -543.670700890     A.U. after    7 cycles
 SCF Done:  E(RB3LYP) =  -543.670701154     A.U. after    7 cycles
 SCF Done:  E(RB3LYP) =  -543.670701182     A.U. after    6 cycles
 Optimization completed.
    -- Stationary point found.
 Normal termination of Gaussian 16 at Thu Feb  3 07:54:32 2022.

 ----------------------------------------------------------------------
 #N Geom=AllCheck Guess=TCheck SCRF=Check GenChk RB3LYP/6-31G(d,p) Freq
 ----------------------------------------------------------------------

 Structure from the checkpoint file:  "Ac1_clust-1.chk"
 -------
 Ac1.xyz
 -------
 Charge =  0 Multiplicity = 1

 SCF Done:  E(RB3LYP) =  -543.670701182     A.U. after    1 cycles

                      1                      2                      3
                      A                      A                      A
 Frequencies --     49.0800                62.8154                73.8317
 Red. masses --      3.0756                 5.0095                 3.4195
 Frc consts  --      0.0044                 0.0116                 0.0110
 IR Inten    --      0.1368                 0.9417                 0.2314

                      4                      5                      6
                      A                      A                      A
 Frequencies --     81.7351               106.9992               132.3798
 Red. masses --      4.2536                 3.8695                 3.6951
 Frc consts  --      0.0167                 0.0261                 0.0382
 IR Inten    --      0.9880                 1.3101                 0.7537

                      7                      8                      9
                      A                      A                      A
 Frequencies --    159.1889               188.3237               209.4073
 Red. masses --      2.2986                 2.0651                 1.8617
 Frc consts  --      0.0343                 0.0432                 0.0481
 IR Inten    --      0.3403                 0.0093                 0.7258

                     10                     11                     12
                      A                      A                      A
 Frequencies --    242.4457               279.8681               306.0584
 Red. masses --      2.9470                 2.4800                 1.6254
 Frc consts  --      0.1021                 0.1144                 0.0897
 IR Inten    --      1.7243                 0.1230                 0.7387

                     13                     14                     15
                      A                      A                      A
 Frequencies --    310.1106               348.3345               393.1007
 Red. masses --      1.3059                 2.6376                 1.9364
 Frc consts  --      0.0740                 0.1886                 0.1763
 IR Inten    --      0.4782                 0.5455                 0.3182

                     16                     17                     18
                      A                      A                      A
 Frequencies --    436.9393               489.1125               503.4653
 Red. masses --      2.7222                 2.2787                 2.2795
 Frc consts  --      0.3062                 0.3212                 0.3404
 IR Inten    --      2.6573                 4.9045                 9.1817

                     19                     20                     21
                      A                      A                      A
 Frequencies --    527.8123               615.5207               685.7797
 Red. masses --      1.8935                 3.0993                 1.4528
 Frc consts  --      0.3108                 0.6918                 0.4025
 IR Inten    --     16.4019                35.2623               165.1299

                     22                     23                     24
                      A                      A                      A
 Frequencies --    725.4367               759.1714               778.0060
 Red. masses --      1.1389                 1.2754                 2.2934
 Frc consts  --      0.3531                 0.4331                 0.8179
 IR Inten    --      5.4728                 1.1733                13.2241

                     25                     26                     27
                      A                      A                      A
 Frequencies --    804.4151               839.1537               859.1602
 Red. masses --      1.8476                 1.8446                 2.0254
 Frc consts  --      0.7044                 0.7653                 0.8809
 IR Inten    --      1.4135                 2.0798                 3.1671

                     28                     29                     30
                      A                      A                      A
 Frequencies --    872.5402               891.4596               938.8150
 Red. masses --      1.4958                 1.7868                 2.2338
 Frc consts  --      0.6710                 0.8366                 1.1600
 IR Inten    --      1.5810                 3.2245                 4.7045

                     31                     32                     33
                      A                      A                      A
 Frequencies --    979.0312               987.0786              1006.1667
 Red. masses --      1.7277                 2.1277                 2.1938
 Frc consts  --      0.9757                 1.2214                 1.3086
 IR Inten    --      1.3658                 3.5404                 1.5660

                     34                     35                     36
                      A                      A                      A
 Frequencies --   1034.0443              1047.2329              1087.3344
 Red. masses --      1.7845                 1.5321                 2.0866
 Frc consts  --      1.1242                 0.9900                 1.4535
 IR Inten    --      1.2216                 3.2295                 2.0450

                     37                     38                     39
                      A                      A                      A
 Frequencies --   1102.1667              1111.0646              1129.6399
 Red. masses --      2.1308                 2.1692                 1.6679
 Frc consts  --      1.5251                 1.5777                 1.2540
 IR Inten    --      0.2128                 0.4047                60.9964

                     40                     41                     42
                      A                      A                      A
 Frequencies --   1143.2619              1171.9818              1195.4101
 Red. masses --      1.7935                 2.3508                 1.6454
 Frc consts  --      1.3812                 1.9024                 1.3853
 IR Inten    --      4.3844               111.6535                63.2312

                     43                     44                     45
                      A                      A                      A
 Frequencies --   1216.2662              1260.2797              1269.1958
 Red. masses --      1.2714                 1.3454                 1.2791
 Frc consts  --      1.1081                 1.2591                 1.2139
 IR Inten    --      0.2530                 1.0354                 5.0910

                     46                     47                     48
                      A                      A                      A
 Frequencies --   1289.0340              1308.3748              1318.0772
 Red. masses --      1.2429                 1.2462                 1.2402
 Frc consts  --      1.2168                 1.2569                 1.2695
 IR Inten    --      1.6432                 0.0284                 0.5469

                     49                     50                     51
                      A                      A                      A
 Frequencies --   1325.3156              1343.0689              1347.0385
 Red. masses --      1.3610                 1.1777                 1.0766
 Frc consts  --      1.4084                 1.2517                 1.1509
 IR Inten    --      5.6442                 7.8636                 0.1986

                     52                     53                     54
                      A                      A                      A
 Frequencies --   1378.4656              1390.9428              1399.1369
 Red. masses --      1.3354                 1.3761                 1.4254
 Frc consts  --      1.4951                 1.5686                 1.6441
 IR Inten    --      4.2932                 2.8253                 0.3615

                     55                     56                     57
                      A                      A                      A
 Frequencies --   1401.6705              1405.6424              1419.1454
 Red. masses --      1.4515                 1.4086                 1.5932
 Frc consts  --      1.6802                 1.6398                 1.8905
 IR Inten    --      4.5235                 1.6073                 0.8581

                     58                     59                     60
                      A                      A                      A
 Frequencies --   1427.7283              1428.7405              1472.0213
 Red. masses --      1.9369                 1.2851                 1.1053
 Frc consts  --      2.3262                 1.5456                 1.4112
 IR Inten    --     46.9943                12.0005                18.0256

                     61                     62                     63
                      A                      A                      A
 Frequencies --   1492.9532              1496.6786              1502.6393
 Red. masses --      1.0866                 1.0779                 1.0912
 Frc consts  --      1.4270                 1.4226                 1.4517
 IR Inten    --      6.8948                 0.2804                 3.6383

                     64                     65                     66
                      A                      A                      A
 Frequencies --   1505.7259              1506.9389              1513.4515
 Red. masses --      1.0855                 1.0738                 1.0765
 Frc consts  --      1.4500                 1.4367                 1.4528
 IR Inten    --      1.0927                 8.9732                 0.4467

                     67                     68                     69
                      A                      A                      A
 Frequencies --   1521.3711              1525.1776              1542.9765
 Red. masses --      1.0823                 1.0681                 1.0549
 Frc consts  --      1.4760                 1.4639                 1.4797
 IR Inten    --      2.4157                11.6435                 4.2293

                     70                     71                     72
                      A                      A                      A
 Frequencies --   1832.1908              3016.9429              3018.3242
 Red. masses --      9.4995                 1.0648                 1.0616
 Frc consts  --     18.7885                 5.7102                 5.6982
 IR Inten    --    180.0373                17.4693                22.1021

                     73                     74                     75
                      A                      A                      A
 Frequencies --   3023.9303              3028.0756              3030.1299
 Red. masses --      1.0732                 1.0482                 1.0562
 Frc consts  --      5.7821                 5.6627                 5.7140
 IR Inten    --     31.2817                19.3515                19.4311

                     76                     77                     78
                      A                      A                      A
 Frequencies --   3032.8126              3038.2604              3041.4998
 Red. masses --      1.0660                 1.0670                 1.0626
 Frc consts  --      5.7768                 5.8033                 5.7914
 IR Inten    --     43.0814                 8.7802                19.0778

                     79                     80                     81
                      A                      A                      A
 Frequencies --   3049.3732              3055.3714              3066.5357
 Red. masses --      1.0667                 1.1000                 1.0921
 Frc consts  --      5.8441                 6.0503                 6.0509
 IR Inten    --     27.3197                29.1270                59.6856

                     82                     83                     84
                      A                      A                      A
 Frequencies --   3070.2110              3076.3774              3082.8071
 Red. masses --      1.0986                 1.1015                 1.0951
 Frc consts  --      6.1012                 6.1419                 6.1318
 IR Inten    --     33.7909                27.8782                23.8475

                     85                     86                     87
                      A                      A                      A
 Frequencies --   3089.5117              3093.4929              3100.9463
 Red. masses --      1.0993                 1.0985                 1.0972
 Frc consts  --      6.1823                 6.1936                 6.2161
 IR Inten    --     11.8209                47.4912                34.4292

                     88                     89                     90
                      A                      A                      A
 Frequencies --   3112.1547              3115.8046              3748.2569
 Red. masses --      1.0960                 1.0968                 1.0640
 Frc consts  --      6.2543                 6.2735                 8.8077
 IR Inten    --     54.4072                52.4578                66.4227

 - Thermochemistry -
 -------------------
 Temperature   298.150 Kelvin.  Pressure   1.00000 Atm.
 Atom     1 has atomic number  8 and mass  15.99491

 Molecular mass:   172.14633 amu.
 Principal axes and moments of inertia in atomic units:
                           1         2         3
     Eigenvalues --  1583.024812786.655463810.08608
           X            0.99968  -0.02455  -0.00630
           Y            0.02451   0.99969  -0.00495
           Z            0.00642   0.00479   0.99997
 This molecule is an asymmetric top.
 Rotational symmetry number  1.
 Warning -- assumption of classical behavior for rotation
           may cause significant error
 Rotational temperatures (Kelvin)      0.05471     0.03108     0.02273
 Rotational constants (GHZ):           1.14006     0.64764     0.47367
 Zero-point vibrational energy     767978.3 (Joules/Mol)
                                  183.55122 (Kcal/Mol)
 Warning -- explicit consideration of  20 degrees of freedom as
           vibrations may cause significant error
 Vibrational temperatures:     70.62    90.38   106.23   117.60   153.95
          (Kelvin)            190.46   229.04   270.96   301.29   348.83
                              402.67   440.35   446.18   501.18   565.58
                              628.66   703.72   724.37   759.40   885.60
                              986.68  1043.74  1092.28  1119.38  1157.37
                             1207.36  1236.14  1255.39  1282.61  1350.75
                             1408.61  1420.19  1447.65  1487.76  1506.73
                             1564.43  1585.77  1598.57  1625.30  1644.90
                             1686.22  1719.93  1749.94  1813.26  1826.09
                             1854.63  1882.46  1896.42  1906.83  1932.38
                             1938.09  1983.30  2001.26  2013.05  2016.69
                             2022.41  2041.83  2054.18  2055.64  2117.91
                             2148.03  2153.39  2161.96  2166.40  2168.15
                             2177.52  2188.91  2194.39  2220.00  2636.11
                             4340.71  4342.70  4350.76  4356.73  4359.68
                             4363.54  4371.38  4376.04  4387.37  4396.00
                             4412.06  4417.35  4426.22  4435.47  4445.12
                             4450.85  4461.57  4477.70  4482.95  5392.91

 Zero-point correction=                           0.292507 (Hartree/Particle)
 Thermal correction to Energy=                    0.306527
 Thermal correction to Enthalpy=                  0.307471
 Thermal correction to Gibbs Free Energy=         0.251628
 Sum of electronic and zero-point Energies=           -543.378194
 Sum of electronic and thermal Energies=              -543.364175
 Sum of electronic and thermal Enthalpies=            -543.363230
 Sum of electronic and thermal Free Energies=         -543.419073

                     E (Thermal)             CV                S
                      KCal/Mol        Cal/Mol-Kelvin    Cal/Mol-Kelvin
 Total                  192.348             52.119            117.531
 Electronic               0.000              0.000              0.000
 Translational            0.889              2.981             41.337
 Rotational               0.889              2.981             31.197
 Vibrational            190.571             46.157             44.997
 Vibration     1          0.595              1.978              4.854
 Vibration     2          0.597              1.972              4.367
 Vibration     3          0.599              1.966              4.049
 Vibration     4          0.600              1.962              3.849
 Vibration     5          0.606              1.944              3.323
 Vibration     6          0.612              1.921              2.911
 Vibration     7          0.621              1.892              2.559
 Vibration     8          0.633              1.856              2.244
 Vibration     9          0.642              1.826              2.049
 Vibration    10          0.659              1.775              1.785
 Vibration    11          0.680              1.711              1.534
 Vibration    12          0.696              1.662              1.384
 Vibration    13          0.699              1.654              1.362
 Vibration    14          0.726              1.579              1.174
 Vibration    15          0.760              1.485              0.988
 Vibration    16          0.797              1.390              0.836
 Vibration    17          0.845              1.274              0.686
 Vibration    18          0.859              1.242              0.650
 Vibration    19          0.883              1.188              0.592
 Vibration    20          0.975              0.999              0.424

 Optimization completed.
    -- Stationary point found.
 Normal termination of Gaussian 16 at Thu Feb  3 07:56:17 2022.

 ----------------------------------------------------------------------
 # M062X/def2tzvp int=(grid=ultrafine) pop=nbo7 polar prop=efg volume g
 uess=read geom=check
 ----------------------------------------------------------------------

 -------
 Ac1.xyz
 -------
 Structure from the checkpoint file:  "Ac1_clust-1.chk"
 Charge =  0 Multiplicity = 1

 SCF Done:  E(RM062X) =  -543.543440874     A.U. after   11 cycles

  Exact polarizability:     138.785      -4.666     122.654      -1.646      -1.830     108.770
 Approx polarizability:     145.714      -2.436     142.519      -1.588      -3.379     151.051

 Summary of Natural Population Analysis:

                                     Natural Population
             Natural    ---------------------------------------------
  Atom No    Charge        Core      Valence    Rydberg      Total
 --------------------------------------------------------------------
    O  1   -0.69506      2.00000     6.67248    0.02258     8.69506
    C  2    0.80633      1.99999     3.15593    0.03775     5.19367
    C  3   -0.52240      1.99999     4.50923    0.01318     6.52240
    C  4   -0.39433      1.99999     4.38254    0.01180     6.39433
    C  5   -0.39078      1.99999     4.38025    0.01053     6.39078
    C  6   -0.40501      1.99999     4.39337    0.01165     6.40501
    C  7   -0.39483      1.99999     4.38296    0.01188     6.39483
    C  8   -0.39749      1.99999     4.38618    0.01132     6.39749
    C  9   -0.38989      1.99999     4.37890    0.01100     6.38989
    C 10   -0.40061      1.99999     4.39014    0.01048     6.40061
    C 11   -0.62962      1.99999     4.61959    0.01004     6.62962
    O 12   -0.61057      2.00000     6.58392    0.02666     8.61057
    H 13    0.49898      0.00000     0.49780    0.00321     0.50102
    H 14    0.24350      0.00000     0.75530    0.00119     0.75650
    H 15    0.23152      0.00000     0.76690    0.00158     0.76848
    H 16    0.20811      0.00000     0.79051    0.00138     0.79189
    H 17    0.21909      0.00000     0.77911    0.00180     0.78091
    H 18    0.19201      0.00000     0.80606    0.00193     0.80799
    H 19    0.20893      0.00000     0.78975    0.00133     0.79107
    H 20    0.20029      0.00000     0.79810    0.00161     0.79971
    H 21    0.21413      0.00000     0.78395    0.00191     0.78587
    H 22    0.18707      0.00000     0.81058    0.00235     0.81293
    H 23    0.19550      0.00000     0.80262    0.00188     0.80450
    H 24    0.20138      0.00000     0.79679    0.00183     0.79862
    H 25    0.20199      0.00000     0.79637    0.00164     0.79801
    H 26    0.19874      0.00000     0.79963    0.00162     0.80126
    H 27    0.19859      0.00000     0.79974    0.00167     0.80141
    H 28    0.19956      0.00000     0.79873    0.00171     0.80044
    H 29    0.20226      0.00000     0.79620    0.00155     0.79774
    H 30    0.20966      0.00000     0.78899    0.00135     0.79034
    H 31    0.21152      0.00000     0.78678    0.00170     0.78848
    H 32    0.20143      0.00000     0.79751    0.00105     0.79857
 ====================================================================
 * Total *  0.00000     23.99992    71.77691    0.22317    96.00000

 1\1\GINC-NOTCH075\SP\RM062X\def2TZVP\C10H20O2\U6032257\03-Feb-2022\0\\
 # M062X/def2tzvp int=(grid=ultrafine) pop=nbo7 polar prop=efg volume g
 uess=read geom=check\\Ac1.xyz\\0,1\O,0,5.4101465523,-1.7759156021,-2.1
 565483789\C,0,4.4392804045,-1.2876335335,-1.3454427224\C,0,4.403158369
 7,-2.0252703107,-0.0259386617\C,0,3.1094842917,-1.8328703814,0.7733949
 332\C,0,1.9161291964,-2.7155429765,0.3679497786\C,0,1.3063655117,-2.44
 00977002,-1.0189584338\C,0,1.9573920744,-3.2049123741,-2.1779655323\C,
 0,1.4323151361,-2.7529366452,-3.5435786375\C,0,2.116714239,-3.42797701

 Normal termination of Gaussian 16 at Thu Feb  3 08:00:30 2022.
 Gaussian 16:  ES64L-G16RevC.01  3-Jul-2019

 --------------------------------------------------------------------
 # M062X/def2tzvp int=(grid=ultrafine) nmr=giao guess=read geom=check
 --------------------------------------------------------------------

 -------
 Ac1.xyz
 -------
 Structure from the checkpoint file:  "Ac1_clust-1.chk"
 Charge =  0 Multiplicity = 1

                         Standard orientation:
 ---------------------------------------------------------------------
 Center     Atomic      Atomic             Coordinates (Angstroms)
 Number     Number       Type             X           Y           Z
 ---------------------------------------------------------------------
      1          8           0        0.142301    2.252278   -0.613355
      2          6           0        0.990768    1.521268    0.151250
      3          6           0        2.189569    1.059251   -0.646197
      4          6           0        2.975979   -0.088214   -0.002436
      5          6           0        2.418763   -1.506146   -0.218243
      6          6           0        1.071024   -1.817775    0.458282
      7          6           0       -0.169206   -1.463697   -0.371497
      8          6           0       -1.468469   -1.625034    0.422716
      9          6           0       -2.732783   -1.199076   -0.337171
     10          6           0       -2.814584    0.297840   -0.677725
     11          6           0       -2.834267    1.211660    0.552272
     12          8           0        0.787889    1.315207    1.329171
     13          1           0       -0.592702    2.515751   -0.033672
     14          1           0        2.831519    1.944361   -0.751043
     15          1           0        1.859083    0.811697   -1.660190
     16          1           0        3.993965   -0.060200   -0.407221
     17          1           0        3.058432    0.110943    1.071613
     18          1           0        2.345870   -1.708875   -1.296413
     19          1           0        3.173419   -2.203245    0.165185
     20          1           0        1.027385   -2.889451    0.691076
     21          1           0        1.023458   -1.291203    1.418171
     22          1           0       -0.098813   -0.438899   -0.745326
     23          1           0       -0.202734   -2.099833   -1.267300
     24          1           0       -1.384979   -1.051761    1.354193
     25          1           0       -1.571689   -2.675200    0.726023
     26          1           0       -2.804705   -1.778825   -1.267127
     27          1           0       -3.613572   -1.469972    0.260299
     28          1           0       -1.977341    0.582051   -1.325834
     29          1           0       -3.723566    0.471313   -1.266658
     30          1           0       -3.667931    0.961199    1.217915
     31          1           0       -1.915262    1.128246    1.141478
     32          1           0       -2.962121    2.261560    0.260797
 ---------------------------------------------------------------------

 SCF Done:  E(RM062X) =  -543.543440874     A.U. after    1 cycles

      1  O    Isotropic =    98.9909   Anisotropy =   225.8074

      2  C    Isotropic =   -10.7201   Anisotropy =   128.3611

      3  C    Isotropic =   147.9625   Anisotropy =    33.1988

      4  C    Isotropic =   159.3324   Anisotropy =    16.4617

      5  C    Isotropic =   153.9320   Anisotropy =     9.0613

      6  C    Isotropic =   153.3996   Anisotropy =    25.5232

      7  C    Isotropic =   154.3125   Anisotropy =    31.9030

      8  C    Isotropic =   157.8497   Anisotropy =    31.5232

      9  C    Isotropic =   154.3688   Anisotropy =    11.9324

     10  C    Isotropic =   165.5602   Anisotropy =    12.8076

     11  C    Isotropic =   173.1304   Anisotropy =    18.1744

     12  O    Isotropic =  -159.6111   Anisotropy =   656.8428

     13  H    Isotropic =    25.3277   Anisotropy =    10.7291

     14  H    Isotropic =    29.4994   Anisotropy =     8.6819

     15  H    Isotropic =    29.5606   Anisotropy =     3.9198

     16  H    Isotropic =    30.4184   Anisotropy =    10.8303

     17  H    Isotropic =    29.8165   Anisotropy =     6.8836

     18  H    Isotropic =    30.9566   Anisotropy =     6.9896

     19  H    Isotropic =    30.1475   Anisotropy =     9.9583

     20  H    Isotropic =    30.4595   Anisotropy =     8.2070

     21  H    Isotropic =    30.5434   Anisotropy =     3.2778

     22  H    Isotropic =    30.8565   Anisotropy =     6.2326

     23  H    Isotropic =    31.1591   Anisotropy =     6.8670

     24  H    Isotropic =    30.6701   Anisotropy =     3.5721

     25  H    Isotropic =    30.7490   Anisotropy =     8.5960

     26  H    Isotropic =    30.5256   Anisotropy =     8.9632

     27  H    Isotropic =    30.6284   Anisotropy =     9.9219

     28  H    Isotropic =    30.3604   Anisotropy =     6.0429

     29  H    Isotropic =    30.5779   Anisotropy =    10.5747

     30  H    Isotropic =    31.2967   Anisotropy =    10.3799

     31  H    Isotropic =    30.3823   Anisotropy =     7.1399

     32  H    Isotropic =    31.1212   Anisotropy =     9.5505

 The electronic state is 1-A.
 Alpha  occ. eigenvalues --  -19.67656 -19.62353 -10.68196 -10.55550 -10.53836
 Alpha  occ. eigenvalues --  -10.53134 -10.52800 -10.52571 -10.52481 -10.52472
 Alpha  occ. eigenvalues --  -10.52290 -10.52274  -1.23702  -1.14171  -0.91680
 Alpha  occ. eigenvalues --   -0.89991  -0.86468  -0.82853  -0.78369  -0.74130
 Alpha  occ. eigenvalues --   -0.70158  -0.67503  -0.64241  -0.63242  -0.58740
 Alpha  occ. eigenvalues --   -0.57905  -0.56976  -0.53742  -0.52986  -0.50983
 Alpha  occ. eigenvalues --   -0.50168  -0.49526  -0.48029  -0.47308  -0.46468
 Alpha  occ. eigenvalues --   -0.45138  -0.43849  -0.42601  -0.41818  -0.40549
 Alpha  occ. eigenvalues --   -0.40480  -0.39347  -0.38512  -0.37922  -0.37364
 Alpha  occ. eigenvalues --   -0.36621  -0.36018  -0.35353
 Alpha virt. eigenvalues --    0.03938   0.05693   0.07050   0.08005   0.08750
 Alpha virt. eigenvalues --    0.09922   0.10594   0.11629   0.12171   0.13037
 Alpha virt. eigenvalues --    0.13257   0.13533   0.14167   0.14614   0.15232

 Mulliken charges:
               1
     1  O   -0.388362
     2  C    0.286232
     3  C   -0.322193
     4  C   -0.273097
     5  C   -0.290105
     6  C   -0.288573
     7  C   -0.326098
     8  C   -0.306996
     9  C   -0.257585
    10  C   -0.264415
    11  C   -0.558699
    12  O   -0.327468
    13  H    0.344141
    14  H    0.174320
    15  H    0.185968
    16  H    0.143190
    17  H    0.175631
    18  H    0.150083
    19  H    0.143945
    20  H    0.143333
    21  H    0.178920
    22  H    0.130214
    23  H    0.151533
    24  H    0.174392
    25  H    0.145011
    26  H    0.141099
    27  H    0.147692
    28  H    0.158807
    29  H    0.141721
    30  H    0.152931
    31  H    0.176123
    32  H    0.158303
 Sum of Mulliken charges =  -0.00000

 Dipole moment (field-independent basis, Debye):
    X=              0.3061    Y=             -0.0191    Z=             -1.3528  Tot=              1.3872
 Quadrupole moment (field-independent basis, Debye-Ang):
   XX=            -72.0388   YY=            -75.7713   ZZ=            -82.0584
   XY=             -0.8099   XZ=             -2.4564   YZ=             -0.7680

 1\1\GINC-NOTCH075\SP\RM062X\def2TZVP\C10H20O2\U6032257\03-Feb-2022\0\\
 # M062X/def2tzvp int=(grid=ultrafine) nmr=giao guess=read geom=check\\
 Ac1.xyz\\0,1\O,0,5.4101465523,-1.7759156021,-2.1565483789\C,0,4.439280
 4045,-1.2876335335,-1.3454427224\C,0,4.4031583697,-2.0252703107,-0.025
 9386617\C,0,3.1094842917,-1.8328703814,0.7733949332\C,0,1.9161291964,-
 2.7155429765,0.3679497786\C,0,1.3063655117,-2.4400977002,-1.0189584338
 \C,0,1.9573920744,-3.2049123741,-2.1779655323\C,0,1.4323151361,-2.7529
 366452,-3.5435786375\C,0,2.116714239,-3.4279770197,-4.7407744404\C,0,3

 Normal termination of Gaussian 16 at Thu Feb  3 08:02:10 2022.
