 Gaussian 16, Revision C.01,

 ----------------------------------------------------------------------
 # B3LYP/6-31G(d,p) empiricaldispersion=GD3BJ int=(grid=ultrafine) opt
 freq=noraman
 ----------------------------------------------------------------------

 -------
 Ac1.xyz
 -------
 Symbolic Z-matrix:
 Charge =  0 Multiplicity = 1

 SCF Done:  E(RB3LYP) =  -543.663547908     A.U. after   13 cycles
 SCF Done:  E(RB3LYP) =  -543.659512117     A.U. after   13 cycles
 SCF Done:  E(RB3LYP) =  -543.665564277     A.U. after   12 cycles
 SCF Done:  E(RB3LYP) =  -543.666022688     A.U. after   12 cycles
 SCF Done:  E(RB3LYP) =  -543.666643910     A.U. after   11 cycles
 SCF Done:  E(RB3LYP) =  -543.666694530     A.U. after   10 cycles
 SCF Done:  E(RB3LYP) =  -543.666788863     A.U. after   10 cycles
 SCF Done:  E(RB3LYP) =  -543.666793273     A.U. after   10 cycles
 SCF Done:  E(RB3LYP) =  -543.666844056     A.U. after   10 cycles
 SCF Done:  E(RB3LYP) =  -543.666860932     A.U. after   10 cycles
 SCF Done:  E(RB3LYP) =  -543.666872951     A.U. after    9 cycles
 SCF Done:  E(RB3LYP) =  -543.666875983     A.U. after    8 cycles
 SCF Done:  E(RB3LYP) =  -543.666876444     A.U. after    8 cycles
 SCF Done:  E(RB3LYP) =  -543.666876511     A.U. after    8 cycles
 SCF Done:  E(RB3LYP) =  -543.666876709     A.U. after    7 cycles
 Optimization completed.
    -- Stationary point found.
 Normal termination of Gaussian 16 at Sat Feb  5 09:01:30 2022.

 ----------------------------------------------------------------------
 #N Geom=AllCheck Guess=TCheck SCRF=Check GenChk RB3LYP/6-31G(d,p) Freq
 ----------------------------------------------------------------------

 Structure from the checkpoint file:  "Ac1_clust-8.chk"
 -------
 Ac1.xyz
 -------
 Charge =  0 Multiplicity = 1

 SCF Done:  E(RB3LYP) =  -543.666876709     A.U. after    1 cycles

                      1                      2                      3
                      A                      A                      A
 Frequencies --     39.2933                43.8499                60.3455
 Red. masses --      4.3703                 2.9268                 6.1023
 Frc consts  --      0.0040                 0.0033                 0.0131
 IR Inten    --      0.3850                 0.0448                 1.3276

                      4                      5                      6
                      A                      A                      A
 Frequencies --     74.1317                87.6648               100.3565
 Red. masses --      2.5596                 2.5155                 2.8078
 Frc consts  --      0.0083                 0.0114                 0.0167
 IR Inten    --      0.3953                 0.7153                 0.2055

                      7                      8                      9
                      A                      A                      A
 Frequencies --    118.7800               171.9608               213.1691
 Red. masses --      3.3261                 2.4758                 3.1175
 Frc consts  --      0.0276                 0.0431                 0.0835
 IR Inten    --      0.4538                 0.0613                 0.0713

                     10                     11                     12
                      A                      A                      A
 Frequencies --    241.3759               244.9318               279.6080
 Red. masses --      1.2962                 2.0460                 2.1478
 Frc consts  --      0.0445                 0.0723                 0.0989
 IR Inten    --      0.2853                 0.1732                 0.0841

                     13                     14                     15
                      A                      A                      A
 Frequencies --    296.6921               349.1423               384.0790
 Red. masses --      2.0040                 1.9490                 2.4883
 Frc consts  --      0.1039                 0.1400                 0.2163
 IR Inten    --      0.2127                 0.2363                 0.1160

                     16                     17                     18
                      A                      A                      A
 Frequencies --    432.6431               469.6815               521.2725
 Red. masses --      2.4966                 2.2997                 2.0613
 Frc consts  --      0.2753                 0.2989                 0.3300
 IR Inten    --      2.4490                 0.9962                 1.1065

                     19                     20                     21
                      A                      A                      A
 Frequencies --    555.8198               612.2035               710.9173
 Red. masses --      3.4804                 1.4657                 2.0707
 Frc consts  --      0.6335                 0.3237                 0.6166
 IR Inten    --     32.6332                49.8268                83.6624

                     22                     23                     24
                      A                      A                      A
 Frequencies --    733.7352               749.6029               779.8735
 Red. masses --      1.2003                 1.2694                 1.9228
 Frc consts  --      0.3807                 0.4202                 0.6890
 IR Inten    --      9.7263                 2.5674                 5.3848

                     25                     26                     27
                      A                      A                      A
 Frequencies --    804.4677               837.0010               862.8540
 Red. masses --      1.9700                 1.6767                 2.0483
 Frc consts  --      0.7512                 0.6921                 0.8985
 IR Inten    --      4.7982                 3.9978                 0.6220

                     28                     29                     30
                      A                      A                      A
 Frequencies --    883.2920               898.1494               935.0746
 Red. masses --      1.6598                 2.0301                 1.9804
 Frc consts  --      0.7630                 0.9649                 1.0202
 IR Inten    --      1.7141                 5.0891                 0.8458

                     31                     32                     33
                      A                      A                      A
 Frequencies --    954.3615               977.6209              1018.3538
 Red. masses --      1.8772                 1.6374                 2.3641
 Frc consts  --      1.0073                 0.9220                 1.4445
 IR Inten    --      1.7733                 7.3982                 0.4251

                     34                     35                     36
                      A                      A                      A
 Frequencies --   1045.2343              1062.1727              1068.1278
 Red. masses --      1.7178                 2.3502                 1.7946
 Frc consts  --      1.1057                 1.5622                 1.2064
 IR Inten    --     20.4464                 2.0789                13.0762

                     37                     38                     39
                      A                      A                      A
 Frequencies --   1090.9559              1107.3190              1121.3940
 Red. masses --      1.8722                 2.1356                 1.6105
 Frc consts  --      1.3129                 1.5428                 1.1933
 IR Inten    --      3.5825                23.1675                31.5198

                     40                     41                     42
                      A                      A                      A
 Frequencies --   1142.7431              1174.0570              1215.8170
 Red. masses --      1.6291                 1.8681                 1.5040
 Frc consts  --      1.2534                 1.5171                 1.3099
 IR Inten    --      2.4008                26.8919                40.1292

                     43                     44                     45
                      A                      A                      A
 Frequencies --   1223.3681              1253.9474              1262.2815
 Red. masses --      1.5585                 1.2818                 1.3142
 Frc consts  --      1.3743                 1.1874                 1.2337
 IR Inten    --     74.3899                 1.6936                10.5831

                     46                     47                     48
                      A                      A                      A
 Frequencies --   1281.8600              1313.7715              1331.5215
 Red. masses --      1.2649                 1.2649                 1.2366
 Frc consts  --      1.2246                 1.2863                 1.2918
 IR Inten    --      0.3236                 2.7360                 0.4459

                     49                     50                     51
                      A                      A                      A
 Frequencies --   1339.9845              1340.5475              1351.0808
 Red. masses --      1.1382                 1.2035                 1.4820
 Frc consts  --      1.2041                 1.2742                 1.5939
 IR Inten    --      1.3282                 0.9502                19.7820

                     52                     53                     54
                      A                      A                      A
 Frequencies --   1359.0670              1381.4513              1389.2365
 Red. masses --      1.2335                 1.5368                 1.3672
 Frc consts  --      1.3424                 1.7280                 1.5547
 IR Inten    --      1.9082                11.2651                 4.6289

                     55                     56                     57
                      A                      A                      A
 Frequencies --   1399.9722              1406.3458              1408.4784
 Red. masses --      1.4855                 1.5182                 1.6714
 Frc consts  --      1.7154                 1.7691                 1.9536
 IR Inten    --      5.4142                 6.6079                17.1933

                     58                     59                     60
                      A                      A                      A
 Frequencies --   1422.7312              1427.5646              1481.6178
 Red. masses --      1.5103                 1.2509                 1.1017
 Frc consts  --      1.8012                 1.5020                 1.4250
 IR Inten    --      0.6653                 2.1522                10.6675

                     61                     62                     63
                      A                      A                      A
 Frequencies --   1497.6985              1498.2632              1502.0635
 Red. masses --      1.0775                 1.0721                 1.0895
 Frc consts  --      1.4240                 1.4180                 1.4483
 IR Inten    --      3.6248                 3.8290                 1.2310

                     64                     65                     66
                      A                      A                      A
 Frequencies --   1504.8205              1507.9976              1510.8014
 Red. masses --      1.0851                 1.0709                 1.0749
 Frc consts  --      1.4478                 1.4348                 1.4455
 IR Inten    --      2.9448                 0.5676                 6.3068

                     67                     68                     69
                      A                      A                      A
 Frequencies --   1511.9012              1517.4028              1526.8121
 Red. masses --      1.0528                 1.0791                 1.0940
 Frc consts  --      1.4179                 1.4639                 1.5026
 IR Inten    --      3.4265                 6.7982                 2.4954

                     70                     71                     72
                      A                      A                      A
 Frequencies --   1835.0093              3015.7659              3016.6782
 Red. masses --      9.4501                 1.0620                 1.0616
 Frc consts  --     18.7484                 5.6910                 5.6921
 IR Inten    --    271.3937                 8.2348                23.4016

                     73                     74                     75
                      A                      A                      A
 Frequencies --   3026.0591              3026.8052              3030.7803
 Red. masses --      1.0635                 1.0721                 1.0675
 Frc consts  --      5.7376                 5.7868                 5.7775
 IR Inten    --      2.4478                28.1704                44.7808

                     76                     77                     78
                      A                      A                      A
 Frequencies --   3038.4309              3039.0170              3046.5620
 Red. masses --      1.0582                 1.0493                 1.0634
 Frc consts  --      5.7560                 5.7097                 5.8150
 IR Inten    --     47.7874                14.7290                22.5464

                     79                     80                     81
                      A                      A                      A
 Frequencies --   3051.1830              3055.5436              3059.2870
 Red. masses --      1.1004                 1.0659                 1.0943
 Frc consts  --      6.0360                 5.8636                 6.0341
 IR Inten    --      8.4086                16.5042                65.4355

                     82                     83                     84
                      A                      A                      A
 Frequencies --   3066.6297              3072.7795              3092.7740
 Red. masses --      1.0977                 1.0993                 1.1020
 Frc consts  --      6.0823                 6.1157                 6.2104
 IR Inten    --     67.2917                41.3943                29.2516

                     85                     86                     87
                      A                      A                      A
 Frequencies --   3100.2483              3106.0004              3118.7383
 Red. masses --      1.0956                 1.0958                 1.1007
 Frc consts  --      6.2046                 6.2286                 6.3080
 IR Inten    --     16.7183                47.9706                34.3712

                     88                     89                     90
                      A                      A                      A
 Frequencies --   3124.9419              3127.2923              3754.4780
 Red. masses --      1.0962                 1.0969                 1.0641
 Frc consts  --      6.3072                 6.3203                 8.8379
 IR Inten    --     79.5779                 3.3521                49.2416

 - Thermochemistry -
 -------------------
 Temperature   298.150 Kelvin.  Pressure   1.00000 Atm.
 Atom     1 has atomic number  8 and mass  15.99491

 Molecular mass:   172.14633 amu.
 Principal axes and moments of inertia in atomic units:
                           1         2         3
     Eigenvalues --  1784.437082885.647713850.25558
           X            0.99912   0.04014  -0.01179
           Y           -0.04003   0.99915   0.01007
           Z            0.01219  -0.00959   0.99988
 This molecule is an asymmetric top.
 Rotational symmetry number  1.
 Warning -- assumption of classical behavior for rotation
           may cause significant error
 Rotational temperatures (Kelvin)      0.04854     0.03002     0.02250
 Rotational constants (GHZ):           1.01138     0.62542     0.46873
 Zero-point vibrational energy     766972.1 (Joules/Mol)
                                  183.31073 (Kcal/Mol)
 Warning -- explicit consideration of  20 degrees of freedom as
           vibrations may cause significant error
 Vibrational temperatures:     56.53    63.09    86.82   106.66   126.13
          (Kelvin)            144.39   170.90   247.41   306.70   347.29
                              352.40   402.29   426.87   502.34   552.60
                              622.48   675.77   749.99   799.70   880.82
                             1022.85  1055.68  1078.51  1122.06  1157.45
                             1204.26  1241.45  1270.86  1292.24  1345.36
                             1373.11  1406.58  1465.18  1503.86  1528.23
                             1536.80  1569.64  1593.19  1613.44  1644.15
                             1689.21  1749.29  1760.15  1804.15  1816.14
                             1844.31  1890.22  1915.76  1927.94  1928.75
                             1943.90  1955.39  1987.60  1998.80  2014.25
                             2023.42  2026.49  2046.99  2053.95  2131.72
                             2154.85  2155.67  2161.13  2165.10  2169.67
                             2173.71  2175.29  2183.20  2196.74  2640.17
                             4339.01  4340.33  4353.82  4354.90  4360.62
                             4371.62  4372.47  4383.32  4389.97  4396.25
                             4401.63  4412.20  4421.04  4449.81  4460.57
                             4468.84  4487.17  4496.09  4499.48  5401.86

 Zero-point correction=                           0.292124 (Hartree/Particle)
 Thermal correction to Energy=                    0.306524
 Thermal correction to Enthalpy=                  0.307468
 Thermal correction to Gibbs Free Energy=         0.249741
 Sum of electronic and zero-point Energies=           -543.374752
 Sum of electronic and thermal Energies=              -543.360353
 Sum of electronic and thermal Enthalpies=            -543.359409
 Sum of electronic and thermal Free Energies=         -543.417136

                     E (Thermal)             CV                S
                      KCal/Mol        Cal/Mol-Kelvin    Cal/Mol-Kelvin
 Total                  192.347             52.321            121.497
 Electronic               0.000              0.000              0.000
 Translational            0.889              2.981             41.337
 Rotational               0.889              2.981             31.361
 Vibrational            190.569             46.360             48.798
 Vibration     1          0.594              1.981              5.294
 Vibration     2          0.595              1.980              5.077
 Vibration     3          0.597              1.973              4.446
 Vibration     4          0.599              1.966              4.041
 Vibration     5          0.601              1.958              3.712
 Vibration     6          0.604              1.949              3.447
 Vibration     7          0.609              1.934              3.120
 Vibration     8          0.626              1.877              2.414
 Vibration     9          0.644              1.821              2.016
 Vibration    10          0.658              1.777              1.793
 Vibration    11          0.660              1.771              1.767
 Vibration    12          0.680              1.711              1.536
 Vibration    13          0.690              1.680              1.435
 Vibration    14          0.726              1.577              1.170
 Vibration    15          0.753              1.504              1.023
 Vibration    16          0.794              1.399              0.850
 Vibration    17          0.827              1.317              0.738
 Vibration    18          0.876              1.203              0.607
 Vibration    19          0.911              1.127              0.532
 Vibration    20          0.971              1.006              0.429

 Optimization completed.
    -- Stationary point found.
 Normal termination of Gaussian 16 at Sat Feb  5 09:02:42 2022.

 ----------------------------------------------------------------------
 # M062X/def2tzvp int=(grid=ultrafine) pop=nbo7 polar prop=efg volume g
 uess=read geom=check
 ----------------------------------------------------------------------

 -------
 Ac1.xyz
 -------
 Structure from the checkpoint file:  "Ac1_clust-8.chk"
 Charge =  0 Multiplicity = 1

 SCF Done:  E(RM062X) =  -543.540667139     A.U. after   11 cycles

  Exact polarizability:     130.009       4.000     128.803      -2.186      -0.089     112.322
 Approx polarizability:     145.649       6.718     147.832       0.768      -1.692     144.569

 Summary of Natural Population Analysis:

                                     Natural Population
             Natural    ---------------------------------------------
  Atom No    Charge        Core      Valence    Rydberg      Total
 --------------------------------------------------------------------
    O  1   -0.69565      2.00000     6.67328    0.02237     8.69565
    C  2    0.80222      1.99999     3.16027    0.03752     5.19778
    C  3   -0.51611      1.99999     4.50271    0.01341     6.51611
    C  4   -0.38391      1.99999     4.37326    0.01066     6.38391
    C  5   -0.40338      1.99999     4.39183    0.01156     6.40338
    C  6   -0.40979      1.99999     4.39814    0.01166     6.40979
    C  7   -0.38432      1.99999     4.37319    0.01113     6.38432
    C  8   -0.39789      1.99999     4.38718    0.01072     6.39789
    C  9   -0.40234      1.99999     4.39054    0.01180     6.40234
    C 10   -0.39414      1.99999     4.38383    0.01032     6.39414
    C 11   -0.60131      1.99999     4.59229    0.00903     6.60131
    O 12   -0.60374      2.00000     6.57711    0.02664     8.60374
    H 13    0.49514      0.00000     0.50156    0.00330     0.50486
    H 14    0.23971      0.00000     0.75902    0.00127     0.76029
    H 15    0.22942      0.00000     0.76910    0.00147     0.77058
    H 16    0.21069      0.00000     0.78784    0.00146     0.78931
    H 17    0.21211      0.00000     0.78609    0.00181     0.78789
    H 18    0.19924      0.00000     0.79874    0.00202     0.80076
    H 19    0.20458      0.00000     0.79373    0.00168     0.79542
    H 20    0.20440      0.00000     0.79392    0.00168     0.79560
    H 21    0.20215      0.00000     0.79556    0.00229     0.79785
    H 22    0.19690      0.00000     0.80137    0.00173     0.80310
    H 23    0.19922      0.00000     0.79913    0.00165     0.80078
    H 24    0.20669      0.00000     0.79194    0.00137     0.79331
    H 25    0.19368      0.00000     0.80450    0.00182     0.80632
    H 26    0.20083      0.00000     0.79755    0.00162     0.79917
    H 27    0.19395      0.00000     0.80392    0.00213     0.80605
    H 28    0.19874      0.00000     0.79890    0.00235     0.80126
    H 29    0.18935      0.00000     0.80885    0.00180     0.81065
    H 30    0.20895      0.00000     0.78971    0.00133     0.79105
    H 31    0.20955      0.00000     0.78943    0.00102     0.79045
    H 32    0.19505      0.00000     0.80366    0.00130     0.80495
 ====================================================================
 * Total *  0.00000     23.99992    71.77816    0.22192    96.00000

 1\1\GINC-NOTCH209\SP\RM062X\def2TZVP\C10H20O2\U6032257\05-Feb-2022\0\\
 # M062X/def2tzvp int=(grid=ultrafine) pop=nbo7 polar prop=efg volume g
 uess=read geom=check\\Ac1.xyz\\0,1\O,0,4.6863594973,-0.2039291953,-0.5
 673669661\C,0,4.9294576787,-1.2996471769,-1.3297406239\C,0,4.793848810
 5,-2.5777759266,-0.5371717538\C,0,3.4464324893,-2.7587582001,0.1885641
 991\C,0,2.2485262132,-3.0240435349,-0.7343512711\C,0,1.7972094594,-1.8
 230648631,-1.5742598705\C,0,0.5486137603,-2.0994488128,-2.4229137433\C
 ,0,0.7125765931,-3.1357958773,-3.5482278056\C,0,1.7816713818,-2.783363

 Normal termination of Gaussian 16 at Sat Feb  5 09:05:33 2022.
 Gaussian 16:  ES64L-G16RevC.01  3-Jul-2019

 --------------------------------------------------------------------
 # M062X/def2tzvp int=(grid=ultrafine) nmr=giao guess=read geom=check
 --------------------------------------------------------------------

 -------
 Ac1.xyz
 -------
 Structure from the checkpoint file:  "Ac1_clust-8.chk"
 Charge =  0 Multiplicity = 1

                         Standard orientation:
 ---------------------------------------------------------------------
 Center     Atomic      Atomic             Coordinates (Angstroms)
 Number     Number       Type             X           Y           Z
 ---------------------------------------------------------------------
      1          8           0       -2.849140    0.423463   -1.233489
      2          6           0       -2.048213    0.966255   -0.282278
      3          6           0       -2.207802    0.273397    1.049881
      4          6           0       -1.995187   -1.252746    1.024184
      5          6           0       -0.543588   -1.696847    0.794483
      6          6           0       -0.006623   -1.454835   -0.621349
      7          6           0        1.417424   -1.984364   -0.838792
      8          6           0        2.527834   -1.286218   -0.034545
      9          6           0        2.671693    0.225811   -0.305601
     10          6           0        1.908870    1.133452    0.668340
     11          6           0        2.028054    2.616036    0.315677
     12          8           0       -1.320015    1.907984   -0.514825
     13          1           0       -2.679072    0.930287   -2.045203
     14          1           0       -3.229080    0.482723    1.391166
     15          1           0       -1.518238    0.754737    1.747326
     16          1           0       -2.333844   -1.643252    1.990481
     17          1           0       -2.649113   -1.692029    0.262751
     18          1           0        0.099385   -1.197647    1.529712
     19          1           0       -0.472930   -2.770882    1.011642
     20          1           0       -0.680749   -1.940542   -1.338703
     21          1           0       -0.026440   -0.388019   -0.862625
     22          1           0        1.436468   -3.059118   -0.611710
     23          1           0        1.661259   -1.894417   -1.905530
     24          1           0        3.471083   -1.789100   -0.278962
     25          1           0        2.377129   -1.450655    1.040382
     26          1           0        3.732960    0.502870   -0.264381
     27          1           0        2.348733    0.444202   -1.333416
     28          1           0        0.848675    0.868449    0.684076
     29          1           0        2.289078    0.957383    1.684070
     30          1           0        1.579686    2.816226   -0.662594
     31          1           0        1.507214    3.242090    1.046403
     32          1           0        3.076265    2.935464    0.281617
 ---------------------------------------------------------------------

 SCF Done:  E(RM062X) =  -543.540667139     A.U. after    1 cycles

      1  O    Isotropic =   101.0063   Anisotropy =   224.0072

      2  C    Isotropic =   -12.0383   Anisotropy =   135.8430

      3  C    Isotropic =   146.2329   Anisotropy =    24.8306

      4  C    Isotropic =   156.8429   Anisotropy =    12.8078

      5  C    Isotropic =   154.2386   Anisotropy =    23.8009

      6  C    Isotropic =   159.0388   Anisotropy =    20.0422

      7  C    Isotropic =   151.1955   Anisotropy =    12.8740

      8  C    Isotropic =   159.7785   Anisotropy =    25.8282

      9  C    Isotropic =   151.2601   Anisotropy =    31.7593

     10  C    Isotropic =   156.5595   Anisotropy =    24.9221

     11  C    Isotropic =   169.4955   Anisotropy =    27.1710

     12  O    Isotropic =  -174.7189   Anisotropy =   621.2361

     13  H    Isotropic =    25.7163   Anisotropy =    10.4675

     14  H    Isotropic =    29.4827   Anisotropy =     8.0984

     15  H    Isotropic =    29.7349   Anisotropy =     4.5843

     16  H    Isotropic =    30.1996   Anisotropy =     9.9676

     17  H    Isotropic =    29.9436   Anisotropy =     7.1476

     18  H    Isotropic =    30.1868   Anisotropy =     4.9477

     19  H    Isotropic =    30.7007   Anisotropy =     8.3860

     20  H    Isotropic =    30.7664   Anisotropy =     7.7766

     21  H    Isotropic =    30.2097   Anisotropy =     6.1503

     22  H    Isotropic =    30.6102   Anisotropy =     9.2175

     23  H    Isotropic =    30.4829   Anisotropy =     9.0844

     24  H    Isotropic =    30.4099   Anisotropy =    10.4939

     25  H    Isotropic =    30.7282   Anisotropy =     4.8030

     26  H    Isotropic =    30.4554   Anisotropy =     8.3910

     27  H    Isotropic =    31.0354   Anisotropy =     3.8878

     28  H    Isotropic =    30.1902   Anisotropy =    10.0206

     29  H    Isotropic =    30.7644   Anisotropy =     6.4494

     30  H    Isotropic =    30.8615   Anisotropy =     7.4590

     31  H    Isotropic =    30.7318   Anisotropy =    10.1131

     32  H    Isotropic =    31.2440   Anisotropy =     9.6340

 The electronic state is 1-A.
 Alpha  occ. eigenvalues --  -19.67713 -19.62236 -10.68154 -10.55582 -10.54517
 Alpha  occ. eigenvalues --  -10.53331 -10.52748 -10.52679 -10.52380 -10.52069
 Alpha  occ. eigenvalues --  -10.51811 -10.50826  -1.23743  -1.14100  -0.92058
 Alpha  occ. eigenvalues --   -0.89597  -0.86266  -0.82398  -0.78007  -0.73436
 Alpha  occ. eigenvalues --   -0.69958  -0.67390  -0.65872  -0.63123  -0.58383
 Alpha  occ. eigenvalues --   -0.57220  -0.56246  -0.53693  -0.51777  -0.51335
 Alpha  occ. eigenvalues --   -0.50094  -0.49216  -0.48021  -0.46969  -0.46310
 Alpha  occ. eigenvalues --   -0.45474  -0.43194  -0.42746  -0.41623  -0.40832
 Alpha  occ. eigenvalues --   -0.40673  -0.38692  -0.38244  -0.38104  -0.36757
 Alpha  occ. eigenvalues --   -0.36248  -0.35747  -0.35236
 Alpha virt. eigenvalues --    0.03685   0.05554   0.07332   0.07824   0.08571
 Alpha virt. eigenvalues --    0.09452   0.10884   0.11241   0.12164   0.12288
 Alpha virt. eigenvalues --    0.12560   0.14186   0.14884   0.15472   0.15787

 Mulliken charges:
               1
     1  O   -0.405617
     2  C    0.296437
     3  C   -0.308470
     4  C   -0.259012
     5  C   -0.329975
     6  C   -0.316338
     7  C   -0.294259
     8  C   -0.288200
     9  C   -0.291725
    10  C   -0.228899
    11  C   -0.414651
    12  O   -0.323901
    13  H    0.336674
    14  H    0.171584
    15  H    0.180981
    16  H    0.148693
    17  H    0.171675
    18  H    0.165477
    19  H    0.149729
    20  H    0.159289
    21  H    0.161587
    22  H    0.144766
    23  H    0.153255
    24  H    0.143759
    25  H    0.156062
    26  H    0.139786
    27  H    0.151832
    28  H    0.072899
    29  H    0.138668
    30  H    0.146507
    31  H    0.139241
    32  H    0.132145
 Sum of Mulliken charges =  -0.00000

 Dipole moment (field-independent basis, Debye):
    X=             -1.1079    Y=             -1.5304    Z=              0.2027  Tot=              1.9002
 Quadrupole moment (field-independent basis, Debye-Ang):
   XX=            -75.1354   YY=            -82.4565   ZZ=            -72.5508
   XY=             -0.7993   XZ=             -0.0141   YZ=             -0.6428

 1\1\GINC-NOTCH209\SP\RM062X\def2TZVP\C10H20O2\U6032257\05-Feb-2022\0\\
 # M062X/def2tzvp int=(grid=ultrafine) nmr=giao guess=read geom=check\\
 Ac1.xyz\\0,1\O,0,4.6863594973,-0.2039291953,-0.5673669661\C,0,4.929457
 6787,-1.2996471769,-1.3297406239\C,0,4.7938488105,-2.5777759266,-0.537
 1717538\C,0,3.4464324893,-2.7587582001,0.1885641991\C,0,2.2485262132,-
 3.0240435349,-0.7343512711\C,0,1.7972094594,-1.8230648631,-1.574259870
 5\C,0,0.5486137603,-2.0994488128,-2.4229137433\C,0,0.7125765931,-3.135
 7958773,-3.5482278056\C,0,1.7816713818,-2.7833639065,-4.603323638\C,0,

 Normal termination of Gaussian 16 at Sat Feb  5 09:06:44 2022.
