 Gaussian 16, Revision C.01,

 ----------------------------------------------------------------------
 # B3LYP/6-31G(d,p) empiricaldispersion=GD3BJ int=(grid=ultrafine) opt
 freq=noraman
 ----------------------------------------------------------------------

 -------
 Ac1.xyz
 -------
 Symbolic Z-matrix:
 Charge =  0 Multiplicity = 1

 SCF Done:  E(RB3LYP) =  -543.666742866     A.U. after   13 cycles
 SCF Done:  E(RB3LYP) =  -543.668628049     A.U. after   11 cycles
 SCF Done:  E(RB3LYP) =  -543.668723669     A.U. after    9 cycles
 SCF Done:  E(RB3LYP) =  -543.668730559     A.U. after    8 cycles
 SCF Done:  E(RB3LYP) =  -543.668731405     A.U. after    7 cycles
 SCF Done:  E(RB3LYP) =  -543.668731341     A.U. after    7 cycles
 SCF Done:  E(RB3LYP) =  -543.668731501     A.U. after    7 cycles
 Optimization completed.
    -- Stationary point found.
 Normal termination of Gaussian 16 at Sat Feb  5 08:51:48 2022.

 ----------------------------------------------------------------------
 #N Geom=AllCheck Guess=TCheck SCRF=Check GenChk RB3LYP/6-31G(d,p) Freq
 ----------------------------------------------------------------------

 Structure from the checkpoint file:  "Ac1_clust-42.chk"
 -------
 Ac1.xyz
 -------
 Charge =  0 Multiplicity = 1

 SCF Done:  E(RB3LYP) =  -543.668731501     A.U. after    1 cycles

                      1                      2                      3
                      A                      A                      A
 Frequencies --     21.0174                28.5534                43.5184
 Red. masses --      4.9521                 3.5522                 3.7245
 Frc consts  --      0.0013                 0.0017                 0.0042
 IR Inten    --      0.7600                 0.0258                 0.2132

                      4                      5                      6
                      A                      A                      A
 Frequencies --     51.0536                76.0168               103.5492
 Red. masses --      2.1911                 2.5817                 1.8398
 Frc consts  --      0.0034                 0.0088                 0.0116
 IR Inten    --      0.0280                 0.0532                 0.1279

                      7                      8                      9
                      A                      A                      A
 Frequencies --    114.3950               130.9552               157.0050
 Red. masses --      3.1147                 2.3820                 1.9213
 Frc consts  --      0.0240                 0.0241                 0.0279
 IR Inten    --      0.4025                 0.5316                 0.0507

                     10                     11                     12
                      A                      A                      A
 Frequencies --    159.2527               186.3855               237.1722
 Red. masses --      2.2170                 2.5311                 2.7013
 Frc consts  --      0.0331                 0.0518                 0.0895
 IR Inten    --      0.0904                 0.8056                 0.3136

                     13                     14                     15
                      A                      A                      A
 Frequencies --    270.7353               314.9974               389.6333
 Red. masses --      1.7920                 2.4167                 3.1972
 Frc consts  --      0.0774                 0.1413                 0.2860
 IR Inten    --      0.6037                 1.1730                 0.4781

                     16                     17                     18
                      A                      A                      A
 Frequencies --    423.1365               489.8075               519.3119
 Red. masses --      3.4089                 2.6915                 1.6031
 Frc consts  --      0.3596                 0.3804                 0.2547
 IR Inten    --      8.0560                 2.4876                20.2377

                     19                     20                     21
                      A                      A                      A
 Frequencies --    523.9056               636.0104               671.4801
 Red. masses --      3.1845                 4.3447                 1.3068
 Frc consts  --      0.5150                 1.0355                 0.3471
 IR Inten    --     14.0185                30.0543                90.8703

                     22                     23                     24
                      A                      A                      A
 Frequencies --    736.2120               739.1330               759.2705
 Red. masses --      1.0693                 1.1193                 1.2069
 Frc consts  --      0.3415                 0.3603                 0.4099
 IR Inten    --      9.1102                 1.0553                 6.3594

                     25                     26                     27
                      A                      A                      A
 Frequencies --    785.6835               830.7677               879.5461
 Red. masses --      1.2262                 1.3733                 2.5001
 Frc consts  --      0.4460                 0.5584                 1.1395
 IR Inten    --      3.4406                 2.5320                 2.5390

                     28                     29                     30
                      A                      A                      A
 Frequencies --    887.4565               905.9265               973.9598
 Red. masses --      3.3064                 1.3357                 1.7847
 Frc consts  --      1.5342                 0.6459                 0.9975
 IR Inten    --      3.7659                 1.9448                 0.7363

                     31                     32                     33
                      A                      A                      A
 Frequencies --    983.1369              1015.1578              1038.4804
 Red. masses --      1.4702                 4.3621                 2.1766
 Frc consts  --      0.8372                 2.6486                 1.3830
 IR Inten    --      1.9514                 7.2745                 0.2812

                     34                     35                     36
                      A                      A                      A
 Frequencies --   1045.3539              1067.3239              1075.7174
 Red. masses --      1.4023                 2.5513                 2.1507
 Frc consts  --      0.9029                 1.7124                 1.4663
 IR Inten    --      0.3940                 7.4232                 2.6679

                     37                     38                     39
                      A                      A                      A
 Frequencies --   1086.5464              1093.3204              1139.4501
 Red. masses --      2.6283                 2.2123                 2.1011
 Frc consts  --      1.8282                 1.5581                 1.6072
 IR Inten    --     11.1808                 3.6702                57.6757

                     40                     41                     42
                      A                      A                      A
 Frequencies --   1141.5654              1164.4726              1203.9447
 Red. masses --      1.5146                 2.5516                 1.8036
 Frc consts  --      1.1629                 2.0385                 1.5403
 IR Inten    --     10.5729               191.3198                 3.5999

                     43                     44                     45
                      A                      A                      A
 Frequencies --   1240.2061              1247.7117              1277.8294
 Red. masses --      1.3229                 1.4759                 1.3232
 Frc consts  --      1.1988                 1.3538                 1.2729
 IR Inten    --     11.5785                 0.2733                 9.7862

                     46                     47                     48
                      A                      A                      A
 Frequencies --   1290.1575              1306.8831              1323.1178
 Red. masses --      1.3044                 1.2883                 1.2251
 Frc consts  --      1.2793                 1.2964                 1.2636
 IR Inten    --      0.0278                 1.3131                 0.4219

                     49                     50                     51
                      A                      A                      A
 Frequencies --   1329.7823              1332.4530              1342.3739
 Red. masses --      1.1500                 1.1218                 1.0926
 Frc consts  --      1.1981                 1.1734                 1.1600
 IR Inten    --      3.3689                 2.7600                 0.8287

                     52                     53                     54
                      A                      A                      A
 Frequencies --   1345.8131              1360.8616              1386.3899
 Red. masses --      1.1099                 1.4600                 1.3852
 Frc consts  --      1.1844                 1.5931                 1.5687
 IR Inten    --      0.2809                 9.2372                12.6147

                     55                     56                     57
                      A                      A                      A
 Frequencies --   1395.2799              1416.8360              1420.9148
 Red. masses --      1.5872                 1.5993                 1.6996
 Frc consts  --      1.8205                 1.8915                 2.0218
 IR Inten    --     18.2122                 4.2032                 3.5443

                     58                     59                     60
                      A                      A                      A
 Frequencies --   1429.9241              1434.7053              1473.3160
 Red. masses --      1.2808                 2.0837                 1.0879
 Frc consts  --      1.5430                 2.5271                 1.3914
 IR Inten    --      4.7916                52.7033                13.3282

                     61                     62                     63
                      A                      A                      A
 Frequencies --   1495.9901              1498.9443              1500.6996
 Red. masses --      1.0768                 1.0811                 1.0705
 Frc consts  --      1.4198                 1.4312                 1.4205
 IR Inten    --      0.8846                 0.5097                 0.2788

                     64                     65                     66
                      A                      A                      A
 Frequencies --   1503.3510              1507.3911              1516.3992
 Red. masses --      1.0674                 1.0920                 1.0581
 Frc consts  --      1.4213                 1.4620                 1.4335
 IR Inten    --      0.8997                 0.6685                 4.8178

                     67                     68                     69
                      A                      A                      A
 Frequencies --   1518.9929              1523.3580              1527.5271
 Red. masses --      1.0922                 1.0653                 1.0979
 Frc consts  --      1.4848                 1.4565                 1.5094
 IR Inten    --      0.1165                 3.5862                 4.7678

                     70                     71                     72
                      A                      A                      A
 Frequencies --   1845.6318              3009.9791              3011.3255
 Red. masses --      9.8030                 1.0588                 1.0592
 Frc consts  --     19.6742                 5.6521                 5.6588
 IR Inten    --    240.4008                 2.1057                 0.0903

                     73                     74                     75
                      A                      A                      A
 Frequencies --   3013.5568              3018.4230              3024.9124
 Red. masses --      1.0605                 1.0611                 1.0648
 Frc consts  --      5.6746                 5.6958                 5.7402
 IR Inten    --      7.4145                 0.3955                32.9159

                     76                     77                     78
                      A                      A                      A
 Frequencies --   3026.2784              3035.2702              3039.9163
 Red. masses --      1.0632                 1.0986                 1.0621
 Frc consts  --      5.7367                 5.9632                 5.7829
 IR Inten    --    108.2907                 4.2240                11.7418

                     79                     80                     81
                      A                      A                      A
 Frequencies --   3041.9850              3043.2466              3048.4728
 Red. masses --      1.0731                 1.0611                 1.0979
 Frc consts  --      5.8504                 5.7901                 6.0113
 IR Inten    --     14.6039                 3.7785                14.3155

                     82                     83                     84
                      A                      A                      A
 Frequencies --   3055.0045              3060.6057              3064.7165
 Red. masses --      1.0603                 1.1009                 1.1041
 Frc consts  --      5.8302                 6.0762                 6.1102
 IR Inten    --     39.3166                25.8624                 8.9323

                     85                     86                     87
                      A                      A                      A
 Frequencies --   3073.0670              3079.0648              3099.5065
 Red. masses --      1.1011                 1.1044                 1.1044
 Frc consts  --      6.1266                 6.1692                 6.2513
 IR Inten    --      5.1336               128.9018                62.1361

                     88                     89                     90
                      A                      A                      A
 Frequencies --   3108.2515              3117.7999              3753.5921
 Red. masses --      1.1015                 1.1017                 1.0641
 Frc consts  --      6.2699                 6.3100                 8.8333
 IR Inten    --     46.7113                51.3168                45.4630

 - Thermochemistry -
 -------------------
 Temperature   298.150 Kelvin.  Pressure   1.00000 Atm.
 Atom     1 has atomic number  8 and mass  15.99491

 Molecular mass:   172.14633 amu.
 Principal axes and moments of inertia in atomic units:
                           1         2         3
     Eigenvalues --   452.85825********************
           X            0.99998   0.00584   0.00065
           Y           -0.00585   0.99982   0.01803
           Z           -0.00054  -0.01803   0.99984
 This molecule is an asymmetric top.
 Rotational symmetry number  1.
 Warning -- assumption of classical behavior for rotation
           may cause significant error
 Rotational temperatures (Kelvin)      0.19126     0.00857     0.00834
 Rotational constants (GHZ):           3.98522     0.17849     0.17385
 Zero-point vibrational energy     763325.9 (Joules/Mol)
                                  182.43928 (Kcal/Mol)
 Warning -- explicit consideration of  19 degrees of freedom as
           vibrations may cause significant error
 Vibrational temperatures:     30.24    41.08    62.61    73.45   109.37
          (Kelvin)            148.98   164.59   188.42   225.90   229.13
                              268.17   341.24   389.53   453.21   560.60
                              608.80   704.72   747.17   753.78   915.08
                              966.11  1059.24  1063.45  1092.42  1130.42
                             1195.29  1265.47  1276.85  1303.43  1401.31
                             1414.51  1460.59  1494.14  1504.03  1535.64
                             1547.72  1563.30  1573.04  1639.41  1642.46
                             1675.42  1732.21  1784.38  1795.18  1838.51
                             1856.25  1880.31  1903.67  1913.26  1917.10
                             1931.38  1936.32  1957.98  1994.71  2007.50
                             2038.51  2044.38  2057.34  2064.22  2119.77
                             2152.40  2156.65  2159.17  2162.99  2168.80
                             2181.76  2185.49  2191.77  2197.77  2655.45
                             4330.69  4332.63  4335.84  4342.84  4352.17
                             4354.14  4367.08  4373.76  4376.74  4378.55
                             4386.07  4395.47  4403.53  4409.44  4421.46
                             4430.09  4459.50  4472.08  4485.82  5400.58

 Zero-point correction=                           0.290735 (Hartree/Particle)
 Thermal correction to Energy=                    0.305831
 Thermal correction to Enthalpy=                  0.306776
 Thermal correction to Gibbs Free Energy=         0.245431
 Sum of electronic and zero-point Energies=           -543.377996
 Sum of electronic and thermal Energies=              -543.362900
 Sum of electronic and thermal Enthalpies=            -543.361956
 Sum of electronic and thermal Free Energies=         -543.423300

                     E (Thermal)             CV                S
                      KCal/Mol        Cal/Mol-Kelvin    Cal/Mol-Kelvin
 Total                  191.912             52.845            129.110
 Electronic               0.000              0.000              0.000
 Translational            0.889              2.981             41.337
 Rotational               0.889              2.981             32.230
 Vibrational            190.135             46.883             55.542
 Vibration     1          0.593              1.986              6.536
 Vibration     2          0.593              1.984              5.927
 Vibration     3          0.595              1.980              5.092
 Vibration     4          0.595              1.977              4.776
 Vibration     5          0.599              1.965              3.991
 Vibration     6          0.605              1.946              3.386
 Vibration     7          0.607              1.937              3.193
 Vibration     8          0.612              1.922              2.932
 Vibration     9          0.621              1.895              2.586
 Vibration    10          0.621              1.892              2.559
 Vibration    11          0.632              1.858              2.263
 Vibration    12          0.656              1.784              1.824
 Vibration    13          0.674              1.727              1.592
 Vibration    14          0.702              1.645              1.336
 Vibration    15          0.758              1.492              1.002
 Vibration    16          0.785              1.420              0.881
 Vibration    17          0.846              1.273              0.684
 Vibration    18          0.874              1.207              0.612
 Vibration    19          0.879              1.197              0.601

 Optimization completed.
    -- Stationary point found.
 Normal termination of Gaussian 16 at Sat Feb  5 08:52:51 2022.

 ----------------------------------------------------------------------
 # M062X/def2tzvp int=(grid=ultrafine) pop=nbo7 polar prop=efg volume g
 uess=read geom=check
 ----------------------------------------------------------------------

 -------
 Ac1.xyz
 -------
 Structure from the checkpoint file:  "Ac1_clust-42.chk"
 Charge =  0 Multiplicity = 1

 SCF Done:  E(RM062X) =  -543.544018796     A.U. after   11 cycles

  Exact polarizability:     162.361       1.982     117.360      -0.356      -2.111     102.972
 Approx polarizability:     145.259       1.106     151.017      -0.477      -3.889     137.511

 Summary of Natural Population Analysis:

                                     Natural Population
             Natural    ---------------------------------------------
  Atom No    Charge        Core      Valence    Rydberg      Total
 --------------------------------------------------------------------
    O  1   -0.68824      2.00000     6.66639    0.02186     8.68824
    C  2    0.79779      1.99999     3.16629    0.03592     5.20221
    C  3   -0.50896      1.99999     4.49626    0.01271     6.50896
    C  4   -0.38979      1.99999     4.37736    0.01243     6.38979
    C  5   -0.38725      1.99999     4.37657    0.01069     6.38725
    C  6   -0.38589      1.99999     4.37497    0.01093     6.38589
    C  7   -0.38505      1.99999     4.37417    0.01089     6.38505
    C  8   -0.39377      1.99999     4.38263    0.01116     6.39377
    C  9   -0.38809      1.99999     4.37709    0.01101     6.38809
    C 10   -0.38995      1.99999     4.37975    0.01020     6.38995
    C 11   -0.60898      1.99999     4.60018    0.00881     6.60898
    O 12   -0.59601      2.00000     6.56986    0.02615     8.59601
    H 13    0.49264      0.00000     0.50396    0.00340     0.50736
    H 14    0.23258      0.00000     0.76593    0.00149     0.76742
    H 15    0.23258      0.00000     0.76592    0.00149     0.76742
    H 16    0.21050      0.00000     0.78778    0.00172     0.78950
    H 17    0.21049      0.00000     0.78779    0.00172     0.78951
    H 18    0.19312      0.00000     0.80500    0.00188     0.80688
    H 19    0.19311      0.00000     0.80501    0.00188     0.80689
    H 20    0.19520      0.00000     0.80293    0.00188     0.80480
    H 21    0.19519      0.00000     0.80294    0.00188     0.80481
    H 22    0.19326      0.00000     0.80484    0.00190     0.80674
    H 23    0.19259      0.00000     0.80547    0.00194     0.80741
    H 24    0.19525      0.00000     0.80287    0.00189     0.80475
    H 25    0.19343      0.00000     0.80461    0.00197     0.80657
    H 26    0.19175      0.00000     0.80628    0.00197     0.80825
    H 27    0.19857      0.00000     0.79981    0.00162     0.80143
    H 28    0.19994      0.00000     0.79853    0.00153     0.80006
    H 29    0.19313      0.00000     0.80503    0.00183     0.80687
    H 30    0.19992      0.00000     0.79875    0.00132     0.80008
    H 31    0.20959      0.00000     0.78945    0.00095     0.79041
    H 32    0.20136      0.00000     0.79750    0.00115     0.79864
 ====================================================================
 * Total *  0.00000     23.99992    71.78191    0.21817    96.00000

 1\1\GINC-NOTCH134\SP\RM062X\def2TZVP\C10H20O2\U6032257\05-Feb-2022\0\\
 # M062X/def2tzvp int=(grid=ultrafine) pop=nbo7 polar prop=efg volume g
 uess=read geom=check\\Ac1.xyz\\0,1\O,0,6.0636514883,-0.1671396324,1.86
 97104406\C,0,5.3395051109,0.0098554326,0.7352615159\C,0,4.832261226,-1
 .3044206102,0.1906165258\C,0,4.0126564011,-1.1464306167,-1.0876405048\
 C,0,3.504978943,-2.484380727,-1.6289440385\C,0,2.6818873596,-2.3386070
 236,-2.9112726747\C,0,2.1698087477,-3.6726562226,-3.4597975244\C,0,1.3
 46610265,-3.5268005531,-4.7423747069\C,0,0.8405515188,-4.8660377537,-5

 Normal termination of Gaussian 16 at Sat Feb  5 08:55:12 2022.
 Gaussian 16:  ES64L-G16RevC.01  3-Jul-2019

 --------------------------------------------------------------------
 # M062X/def2tzvp int=(grid=ultrafine) nmr=giao guess=read geom=check
 --------------------------------------------------------------------

 -------
 Ac1.xyz
 -------
 Structure from the checkpoint file:  "Ac1_clust-42.chk"
 Charge =  0 Multiplicity = 1

                         Standard orientation:
 ---------------------------------------------------------------------
 Center     Atomic      Atomic             Coordinates (Angstroms)
 Number     Number       Type             X           Y           Z
 ---------------------------------------------------------------------
      1          8           0       -5.812608   -0.464971    0.236070
      2          6           0       -4.690985    0.264235    0.006052
      3          6           0       -3.443253   -0.570545    0.172074
      4          6           0       -2.158967    0.216051   -0.077991
      5          6           0       -0.902840   -0.640479    0.093347
      6          6           0        0.391699    0.137875   -0.154502
      7          6           0        1.653613   -0.711669    0.014730
      8          6           0        2.948353    0.066883   -0.233137
      9          6           0        4.207241   -0.788507   -0.058417
     10          6           0        5.519713   -0.057505   -0.372986
     11          6           0        5.825420    1.111014    0.568635
     12          8           0       -4.730328    1.437308   -0.292945
     13          1           0       -6.557957    0.145672    0.108241
     14          1           0       -3.524502   -1.429132   -0.506608
     15          1           0       -3.460201   -0.996965    1.183144
     16          1           0       -2.188764    0.640298   -1.088068
     17          1           0       -2.124428    1.073161    0.604151
     18          1           0       -0.883047   -1.064426    1.107301
     19          1           0       -0.947368   -1.498698   -0.591988
     20          1           0        0.371264    0.561650   -1.168064
     21          1           0        0.435465    0.995567    0.530895
     22          1           0        1.673334   -1.134771    1.028945
     23          1           0        1.608704   -1.570235   -0.669958
     24          1           0        2.982330    0.927160    0.447287
     25          1           0        2.932826    0.484017   -1.250158
     26          1           0        4.244110   -1.170428    0.971784
     27          1           0        4.126920   -1.671314   -0.706666
     28          1           0        6.345091   -0.778863   -0.327825
     29          1           0        5.489677    0.306014   -1.409049
     30          1           0        5.846905    0.777608    1.612617
     31          1           0        6.798627    1.557655    0.341748
     32          1           0        5.074532    1.903217    0.490442
 ---------------------------------------------------------------------

 SCF Done:  E(RM062X) =  -543.544018796     A.U. after    1 cycles

      1  O    Isotropic =   105.5407   Anisotropy =   244.2284

      2  C    Isotropic =    -9.0196   Anisotropy =   123.1085

      3  C    Isotropic =   148.7918   Anisotropy =    50.6921

      4  C    Isotropic =   157.6479   Anisotropy =    28.9618

      5  C    Isotropic =   151.4802   Anisotropy =    35.6815

      6  C    Isotropic =   150.0612   Anisotropy =    37.8961

      7  C    Isotropic =   149.7234   Anisotropy =    38.0089

      8  C    Isotropic =   153.2607   Anisotropy =    29.3392

      9  C    Isotropic =   150.7890   Anisotropy =    25.9536

     10  C    Isotropic =   160.5889   Anisotropy =    17.4509

     11  C    Isotropic =   172.6302   Anisotropy =    21.1278

     12  O    Isotropic =  -166.0075   Anisotropy =   652.8775

     13  H    Isotropic =    25.7546   Anisotropy =    11.7245

     14  H    Isotropic =    29.6271   Anisotropy =     6.2428

     15  H    Isotropic =    29.6271   Anisotropy =     6.2613

     16  H    Isotropic =    30.3207   Anisotropy =     5.7157

     17  H    Isotropic =    30.3205   Anisotropy =     5.6347

     18  H    Isotropic =    30.7569   Anisotropy =     4.9870

     19  H    Isotropic =    30.7641   Anisotropy =     4.9545

     20  H    Isotropic =    30.5963   Anisotropy =     4.5499

     21  H    Isotropic =    30.5959   Anisotropy =     4.4182

     22  H    Isotropic =    30.7175   Anisotropy =     4.6300

     23  H    Isotropic =    30.6834   Anisotropy =     4.6522

     24  H    Isotropic =    30.3712   Anisotropy =     5.9470

     25  H    Isotropic =    30.9998   Anisotropy =     5.1415

     26  H    Isotropic =    30.7822   Anisotropy =     5.9514

     27  H    Isotropic =    30.4218   Anisotropy =     6.7117

     28  H    Isotropic =    30.3682   Anisotropy =     9.7440

     29  H    Isotropic =    30.6929   Anisotropy =     7.7413

     30  H    Isotropic =    31.3623   Anisotropy =     8.7094

     31  H    Isotropic =    30.8785   Anisotropy =    10.8804

     32  H    Isotropic =    30.7736   Anisotropy =     6.8641

 The electronic state is 1-A.
 Alpha  occ. eigenvalues --  -19.67463 -19.62155 -10.67958 -10.55520 -10.53683
 Alpha  occ. eigenvalues --  -10.53421 -10.53009 -10.52882 -10.52852 -10.52718
 Alpha  occ. eigenvalues --  -10.52682 -10.52078  -1.23533  -1.14027  -0.91966
 Alpha  occ. eigenvalues --   -0.90189  -0.87162  -0.83008  -0.78225  -0.73667
 Alpha  occ. eigenvalues --   -0.69445  -0.66245  -0.65970  -0.64473  -0.58199
 Alpha  occ. eigenvalues --   -0.57114  -0.57030  -0.55109  -0.52760  -0.51723
 Alpha  occ. eigenvalues --   -0.50261  -0.48777  -0.48669  -0.47414  -0.45494
 Alpha  occ. eigenvalues --   -0.45086  -0.44044  -0.42065  -0.41275  -0.40716
 Alpha  occ. eigenvalues --   -0.40178  -0.39475  -0.39157  -0.38370  -0.37902
 Alpha  occ. eigenvalues --   -0.37590  -0.36370  -0.35506
 Alpha virt. eigenvalues --    0.04581   0.05744   0.06592   0.07366   0.08653
 Alpha virt. eigenvalues --    0.08939   0.09211   0.10700   0.11100   0.11817
 Alpha virt. eigenvalues --    0.13442   0.14049   0.14389   0.14776   0.15372

 Mulliken charges:
               1
     1  O   -0.411605
     2  C    0.354248
     3  C   -0.329000
     4  C   -0.280990
     5  C   -0.275249
     6  C   -0.281845
     7  C   -0.279804
     8  C   -0.299842
     9  C   -0.269686
    10  C   -0.241108
    11  C   -0.444863
    12  O   -0.333210
    13  H    0.335394
    14  H    0.169810
    15  H    0.169815
    16  H    0.155218
    17  H    0.155230
    18  H    0.140951
    19  H    0.140866
    20  H    0.143476
    21  H    0.143659
    22  H    0.140050
    23  H    0.140554
    24  H    0.143624
    25  H    0.140348
    26  H    0.144636
    27  H    0.136964
    28  H    0.135235
    29  H    0.134696
    30  H    0.137068
    31  H    0.142791
    32  H    0.142569
 Sum of Mulliken charges =   0.00000

 Dipole moment (field-independent basis, Debye):
    X=              0.3939    Y=             -1.5355    Z=              0.3253  Tot=              1.6182
 Quadrupole moment (field-independent basis, Debye-Ang):
   XX=            -74.2892   YY=            -83.0035   ZZ=            -76.4829
   XY=              4.8755   XZ=             -1.6670   YZ=              1.4914

 1\1\GINC-NOTCH134\SP\RM062X\def2TZVP\C10H20O2\U6032257\05-Feb-2022\0\\
 # M062X/def2tzvp int=(grid=ultrafine) nmr=giao guess=read geom=check\\
 Ac1.xyz\\0,1\O,0,6.0636514883,-0.1671396324,1.8697104406\C,0,5.3395051
 109,0.0098554326,0.7352615159\C,0,4.832261226,-1.3044206102,0.19061652
 58\C,0,4.0126564011,-1.1464306167,-1.0876405048\C,0,3.504978943,-2.484
 380727,-1.6289440385\C,0,2.6818873596,-2.3386070236,-2.9112726747\C,0,
 2.1698087477,-3.6726562226,-3.4597975244\C,0,1.346610265,-3.5268005531
 ,-4.7423747069\C,0,0.8405515188,-4.8660377537,-5.287688272\C,0,-0.0512

 Normal termination of Gaussian 16 at Sat Feb  5 08:56:13 2022.
