 Gaussian 16, Revision C.01,

 ----------------------------------------------------------------------
 # B3LYP/6-31G(d,p) empiricaldispersion=GD3BJ int=(grid=ultrafine) opt
 freq=noraman
 ----------------------------------------------------------------------

 -------
 Ac1.xyz
 -------
 Symbolic Z-matrix:
 Charge =  0 Multiplicity = 1

 SCF Done:  E(RB3LYP) =  -543.664461254     A.U. after   13 cycles
 SCF Done:  E(RB3LYP) =  -543.666820564     A.U. after   12 cycles
 SCF Done:  E(RB3LYP) =  -543.666249618     A.U. after   11 cycles
 SCF Done:  E(RB3LYP) =  -543.667016263     A.U. after   11 cycles
 SCF Done:  E(RB3LYP) =  -543.667027772     A.U. after    9 cycles
 SCF Done:  E(RB3LYP) =  -543.667029688     A.U. after    8 cycles
 SCF Done:  E(RB3LYP) =  -543.667030454     A.U. after    7 cycles
 SCF Done:  E(RB3LYP) =  -543.667031535     A.U. after    9 cycles
 SCF Done:  E(RB3LYP) =  -543.667033210     A.U. after    9 cycles
 SCF Done:  E(RB3LYP) =  -543.667034829     A.U. after   10 cycles
 SCF Done:  E(RB3LYP) =  -543.667035394     A.U. after    7 cycles
 SCF Done:  E(RB3LYP) =  -543.667035436     A.U. after    7 cycles
 SCF Done:  E(RB3LYP) =  -543.667035455     A.U. after    7 cycles
 Optimization completed.
    -- Stationary point found.
 Normal termination of Gaussian 16 at Sat Feb  5 08:56:18 2022.

 ----------------------------------------------------------------------
 #N Geom=AllCheck Guess=TCheck SCRF=Check GenChk RB3LYP/6-31G(d,p) Freq
 ----------------------------------------------------------------------

 Structure from the checkpoint file:  "Ac1_clust-45.chk"
 -------
 Ac1.xyz
 -------
 Charge =  0 Multiplicity = 1

 SCF Done:  E(RB3LYP) =  -543.667035455     A.U. after    1 cycles

                      1                      2                      3
                      A                      A                      A
 Frequencies --     18.6444                23.2951                32.3398
 Red. masses --      7.6493                 4.7065                 3.9820
 Frc consts  --      0.0016                 0.0015                 0.0025
 IR Inten    --      0.8943                 0.2567                 0.4368

                      4                      5                      6
                      A                      A                      A
 Frequencies --     40.8373                78.3754               102.6456
 Red. masses --      2.3252                 4.2174                 2.6914
 Frc consts  --      0.0023                 0.0153                 0.0167
 IR Inten    --      0.0209                 0.0790                 0.0072

                      7                      8                      9
                      A                      A                      A
 Frequencies --    120.1997               151.4957               199.3529
 Red. masses --      2.2354                 1.6080                 2.3302
 Frc consts  --      0.0190                 0.0217                 0.0546
 IR Inten    --      0.0246                 0.0182                 0.0715

                     10                     11                     12
                      A                      A                      A
 Frequencies --    232.7686               243.0964               274.9523
 Red. masses --      2.2410                 1.7137                 1.5129
 Frc consts  --      0.0715                 0.0597                 0.0674
 IR Inten    --      0.1559                 0.0223                 0.0882

                     13                     14                     15
                      A                      A                      A
 Frequencies --    307.0345               328.1429               397.1623
 Red. masses --      2.9660                 2.1216                 2.5225
 Frc consts  --      0.1647                 0.1346                 0.2344
 IR Inten    --      0.0881                 0.2546                 1.1728

                     16                     17                     18
                      A                      A                      A
 Frequencies --    455.2598               460.6445               514.2262
 Red. masses --      2.7505                 2.2747                 2.3906
 Frc consts  --      0.3359                 0.2844                 0.3725
 IR Inten    --      2.3759                 0.4289                 3.8562

                     19                     20                     21
                      A                      A                      A
 Frequencies --    566.7037               623.4612               708.8052
 Red. masses --      3.6307                 1.3994                 1.6252
 Frc consts  --      0.6870                 0.3205                 0.4811
 IR Inten    --     37.3299                61.3705                40.0215

                     22                     23                     24
                      A                      A                      A
 Frequencies --    727.1593               751.4793               780.0193
 Red. masses --      1.2337                 1.2880                 1.2698
 Frc consts  --      0.3844                 0.4285                 0.4552
 IR Inten    --     22.0001                16.4085                 0.9012

                     25                     26                     27
                      A                      A                      A
 Frequencies --    800.8093               838.8861               857.4616
 Red. masses --      1.6774                 3.1355                 1.8427
 Frc consts  --      0.6338                 1.3001                 0.7983
 IR Inten    --      4.5840                 3.4202                 0.7256

                     28                     29                     30
                      A                      A                      A
 Frequencies --    884.5773               894.5488               931.3929
 Red. masses --      2.0440                 1.6782                 2.0638
 Frc consts  --      0.9423                 0.7912                 1.0548
 IR Inten    --      0.5640                 1.2673                 3.3004

                     31                     32                     33
                      A                      A                      A
 Frequencies --    979.6935               983.7976              1020.6356
 Red. masses --      1.8029                 1.6131                 2.1429
 Frc consts  --      1.0196                 0.9199                 1.3152
 IR Inten    --      6.0182                 1.3929                 5.0412

                     34                     35                     36
                      A                      A                      A
 Frequencies --   1021.8712              1052.2031              1078.0364
 Red. masses --      1.7524                 1.7131                 2.0747
 Frc consts  --      1.0782                 1.1175                 1.4206
 IR Inten    --      0.7109                 9.9661                25.9846

                     37                     38                     39
                      A                      A                      A
 Frequencies --   1092.1776              1103.9378              1117.5383
 Red. masses --      2.0996                 2.1878                 1.5420
 Frc consts  --      1.4756                 1.5709                 1.1346
 IR Inten    --      8.2575                 7.2521                48.7111

                     40                     41                     42
                      A                      A                      A
 Frequencies --   1142.3800              1175.8171              1212.9907
 Red. masses --      1.7561                 1.9500                 1.5548
 Frc consts  --      1.3503                 1.5884                 1.3479
 IR Inten    --      0.3728                28.7184                10.0451

                     43                     44                     45
                      A                      A                      A
 Frequencies --   1223.9130              1245.8104              1273.7086
 Red. masses --      1.6362                 1.3403                 1.3393
 Frc consts  --      1.4441                 1.2256                 1.2801
 IR Inten    --     84.8391                21.8349                 0.8675

                     46                     47                     48
                      A                      A                      A
 Frequencies --   1290.1385              1317.2979              1323.7525
 Red. masses --      1.2985                 1.2687                 1.2663
 Frc consts  --      1.2734                 1.2971                 1.3074
 IR Inten    --      0.1782                 0.2973                 7.5624

                     49                     50                     51
                      A                      A                      A
 Frequencies --   1333.0530              1339.7583              1348.0181
 Red. masses --      1.2730                 1.1409                 1.1191
 Frc consts  --      1.3329                 1.2066                 1.1982
 IR Inten    --      3.5916                 1.7243                 3.1655

                     52                     53                     54
                      A                      A                      A
 Frequencies --   1364.7230              1382.6677              1386.2250
 Red. masses --      1.3028                 1.6573                 1.4995
 Frc consts  --      1.4296                 1.8667                 1.6977
 IR Inten    --      7.4369                23.1013                 0.6046

                     55                     56                     57
                      A                      A                      A
 Frequencies --   1394.5340              1399.8381              1418.6498
 Red. masses --      1.4957                 1.4462                 1.5767
 Frc consts  --      1.7138                 1.6697                 1.8696
 IR Inten    --     12.3753                 5.1111                11.0619

                     58                     59                     60
                      A                      A                      A
 Frequencies --   1424.8089              1429.9538              1484.4602
 Red. masses --      1.5818                 1.2746                 1.0906
 Frc consts  --      1.8920                 1.5356                 1.4160
 IR Inten    --      3.5710                 5.3858                 8.2129

                     61                     62                     63
                      A                      A                      A
 Frequencies --   1495.6245              1496.7494              1502.9485
 Red. masses --      1.0745                 1.0810                 1.0687
 Frc consts  --      1.4162                 1.4268                 1.4223
 IR Inten    --      1.6352                 2.8241                 0.9779

                     64                     65                     66
                      A                      A                      A
 Frequencies --   1504.7941              1508.4925              1511.2691
 Red. masses --      1.0876                 1.0930                 1.0915
 Frc consts  --      1.4510                 1.4653                 1.4688
 IR Inten    --      0.4950                 1.2048                 4.2318

                     67                     68                     69
                      A                      A                      A
 Frequencies --   1516.9564              1522.2125              1524.4676
 Red. masses --      1.0526                 1.0885                 1.0726
 Frc consts  --      1.4271                 1.4861                 1.4687
 IR Inten    --      5.7893                 0.9756                 5.4851

                     70                     71                     72
                      A                      A                      A
 Frequencies --   1849.1883              3012.0866              3017.6655
 Red. masses --      9.6345                 1.0626                 1.0625
 Frc consts  --     19.4107                 5.6799                 5.7006
 IR Inten    --    270.2014                 3.6822                 9.6785

                     73                     74                     75
                      A                      A                      A
 Frequencies --   3023.3422              3025.6394              3028.7403
 Red. masses --      1.0629                 1.0648                 1.0635
 Frc consts  --      5.7240                 5.7432                 5.7478
 IR Inten    --     23.6660                24.4989                58.4336

                     76                     77                     78
                      A                      A                      A
 Frequencies --   3035.4139              3040.3466              3049.4860
 Red. masses --      1.0619                 1.0381                 1.0864
 Frc consts  --      5.7644                 5.6536                 5.9525
 IR Inten    --      7.3699                24.9633                26.2716

                     79                     80                     81
                      A                      A                      A
 Frequencies --   3052.0040              3053.5948              3059.5449
 Red. masses --      1.0737                 1.0947                 1.0660
 Frc consts  --      5.8928                 6.0143                 5.8794
 IR Inten    --     14.6154                 4.2029                 7.4266

                     82                     83                     84
                      A                      A                      A
 Frequencies --   3061.1519              3063.8144              3072.8762
 Red. masses --      1.0954                 1.1014                 1.1006
 Frc consts  --      6.0478                 6.0916                 6.1229
 IR Inten    --     61.4792                 5.1672                49.7282

                     85                     86                     87
                      A                      A                      A
 Frequencies --   3083.1313              3098.6160              3108.1294
 Red. masses --      1.1020                 1.1047                 1.1013
 Frc consts  --      6.1717                 6.2495                 6.2685
 IR Inten    --    114.8706                47.6475                45.4114

                     88                     89                     90
                      A                      A                      A
 Frequencies --   3117.5347              3128.1050              3754.5050
 Red. masses --      1.1017                 1.0993                 1.0641
 Frc consts  --      6.3086                 6.3377                 8.8381
 IR Inten    --     52.2530                19.8792                50.8650

 - Thermochemistry -
 -------------------
 Temperature   298.150 Kelvin.  Pressure   1.00000 Atm.
 Atom     1 has atomic number  8 and mass  15.99491

 Molecular mass:   172.14633 amu.
 Principal axes and moments of inertia in atomic units:
                           1         2         3
     Eigenvalues --  1110.286966055.005576695.01623
           X            0.99991  -0.01335  -0.00252
           Y            0.01330   0.99975  -0.01806
           Z            0.00276   0.01802   0.99983
 This molecule is an asymmetric top.
 Rotational symmetry number  1.
 Warning -- assumption of classical behavior for rotation
           may cause significant error
 Rotational temperatures (Kelvin)      0.07801     0.01430     0.01294
 Rotational constants (GHZ):           1.62547     0.29806     0.26956
 Zero-point vibrational energy     765769.1 (Joules/Mol)
                                  183.02321 (Kcal/Mol)
 Warning -- explicit consideration of  19 degrees of freedom as
           vibrations may cause significant error
 Vibrational temperatures:     26.83    33.52    46.53    58.76   112.76
          (Kelvin)            147.68   172.94   217.97   286.82   334.90
                              349.76   395.59   441.75   472.12   571.43
                              655.02   662.76   739.86   815.36   897.02
                             1019.81  1046.22  1081.21  1122.27  1152.19
                             1206.97  1233.70  1272.71  1287.06  1340.07
                             1409.56  1415.47  1468.47  1470.24  1513.89
                             1551.05  1571.40  1588.32  1607.89  1643.63
                             1691.74  1745.22  1760.94  1792.44  1832.58
                             1856.22  1895.30  1904.58  1917.97  1927.61
                             1939.50  1963.53  1989.35  1994.47  2006.42
                             2014.05  2041.12  2049.98  2057.38  2135.81
                             2151.87  2153.49  2162.41  2165.06  2170.38
                             2174.38  2182.56  2190.12  2193.37  2660.57
                             4333.72  4341.75  4349.92  4353.22  4357.68
                             4367.28  4374.38  4387.53  4391.15  4393.44
                             4402.00  4404.31  4408.15  4421.18  4435.94
                             4458.22  4471.90  4485.44  4500.65  5401.90

 Zero-point correction=                           0.291666 (Hartree/Particle)
 Thermal correction to Energy=                    0.306353
 Thermal correction to Enthalpy=                  0.307297
 Thermal correction to Gibbs Free Energy=         0.246474
 Sum of electronic and zero-point Energies=           -543.375369
 Sum of electronic and thermal Energies=              -543.360683
 Sum of electronic and thermal Enthalpies=            -543.359738
 Sum of electronic and thermal Free Energies=         -543.420562

                     E (Thermal)             CV                S
                      KCal/Mol        Cal/Mol-Kelvin    Cal/Mol-Kelvin
 Total                  192.239             52.378            128.013
 Electronic               0.000              0.000              0.000
 Translational            0.889              2.981             41.337
 Rotational               0.889              2.981             32.176
 Vibrational            190.462             46.416             54.500
 Vibration     1          0.593              1.986              6.774
 Vibration     2          0.593              1.985              6.331
 Vibration     3          0.594              1.983              5.680
 Vibration     4          0.594              1.981              5.218
 Vibration     5          0.600              1.964              3.931
 Vibration     6          0.605              1.947              3.403
 Vibration     7          0.609              1.932              3.097
 Vibration     8          0.619              1.901              2.653
 Vibration     9          0.637              1.841              2.139
 Vibration    10          0.654              1.791              1.857
 Vibration    11          0.659              1.774              1.780
 Vibration    12          0.677              1.720              1.565
 Vibration    13          0.697              1.660              1.378
 Vibration    14          0.711              1.619              1.269
 Vibration    15          0.764              1.476              0.973
 Vibration    16          0.814              1.349              0.780
 Vibration    17          0.818              1.337              0.764
 Vibration    18          0.869              1.218              0.623
 Vibration    19          0.923              1.103              0.511

 Optimization completed.
    -- Stationary point found.
 Normal termination of Gaussian 16 at Sat Feb  5 08:57:44 2022.

 ----------------------------------------------------------------------
 # M062X/def2tzvp int=(grid=ultrafine) pop=nbo7 polar prop=efg volume g
 uess=read geom=check
 ----------------------------------------------------------------------

 -------
 Ac1.xyz
 -------
 Structure from the checkpoint file:  "Ac1_clust-45.chk"
 Charge =  0 Multiplicity = 1

 SCF Done:  E(RM062X) =  -543.542227881     A.U. after   11 cycles

  Exact polarizability:     144.061      -1.751     121.901       3.274       2.414     109.644
 Approx polarizability:     144.609      -0.507     144.316       3.503       5.924     146.272

 Summary of Natural Population Analysis:

                                     Natural Population
             Natural    ---------------------------------------------
  Atom No    Charge        Core      Valence    Rydberg      Total
 --------------------------------------------------------------------
    O  1   -0.69758      2.00000     6.67542    0.02216     8.69758
    C  2    0.79476      1.99999     3.16704    0.03821     5.20524
    C  3   -0.50590      1.99999     4.49269    0.01321     6.50590
    C  4   -0.39251      1.99999     4.38121    0.01130     6.39251
    C  5   -0.40201      1.99999     4.39052    0.01149     6.40201
    C  6   -0.38648      1.99999     4.37553    0.01096     6.38648
    C  7   -0.39291      1.99999     4.38181    0.01110     6.39291
    C  8   -0.40325      1.99999     4.39149    0.01176     6.40325
    C  9   -0.38765      1.99999     4.37650    0.01116     6.38765
    C 10   -0.39035      1.99999     4.38014    0.01021     6.39035
    C 11   -0.60889      1.99999     4.60013    0.00877     6.60889
    O 12   -0.59169      2.00000     6.56531    0.02638     8.59169
    H 13    0.49428      0.00000     0.50226    0.00346     0.50572
    H 14    0.23599      0.00000     0.76272    0.00129     0.76401
    H 15    0.22843      0.00000     0.77009    0.00148     0.77157
    H 16    0.20628      0.00000     0.79204    0.00167     0.79372
    H 17    0.21255      0.00000     0.78560    0.00185     0.78745
    H 18    0.20563      0.00000     0.79261    0.00176     0.79437
    H 19    0.19902      0.00000     0.79918    0.00180     0.80098
    H 20    0.20093      0.00000     0.79742    0.00165     0.79907
    H 21    0.20158      0.00000     0.79678    0.00164     0.79842
    H 22    0.19301      0.00000     0.80515    0.00184     0.80699
    H 23    0.20249      0.00000     0.79583    0.00168     0.79751
    H 24    0.19387      0.00000     0.80417    0.00196     0.80613
    H 25    0.19516      0.00000     0.80280    0.00204     0.80484
    H 26    0.19141      0.00000     0.80661    0.00199     0.80859
    H 27    0.19903      0.00000     0.79932    0.00165     0.80097
    H 28    0.20047      0.00000     0.79800    0.00152     0.79953
    H 29    0.19358      0.00000     0.80459    0.00182     0.80642
    H 30    0.20075      0.00000     0.79812    0.00112     0.79925
    H 31    0.19960      0.00000     0.79907    0.00133     0.80040
    H 32    0.21036      0.00000     0.78869    0.00095     0.78964
 ====================================================================
 * Total *  0.00000     23.99992    71.77885    0.22123    96.00000

 1\1\GINC-NOTCH076\SP\RM062X\def2TZVP\C10H20O2\U6032257\05-Feb-2022\0\\
 # M062X/def2tzvp int=(grid=ultrafine) pop=nbo7 polar prop=efg volume g
 uess=read geom=check\\Ac1.xyz\\0,1\O,0,5.2906439603,-0.7915645065,0.79
 47353855\C,0,5.2725040957,-0.22635973,-0.4410989949\C,0,5.2747887436,-
 1.2696488953,-1.5343889992\C,0,4.1269857292,-2.2848524005,-1.406434646
 \C,0,2.743136094,-1.6316440378,-1.4698539374\C,0,1.5804616789,-2.61875
 84475,-1.2912839819\C,0,1.5224971975,-3.7585772417,-2.3193675544\C,0,1
 .4266886753,-3.2906284251,-3.774526612\C,0,1.2824002002,-4.450824507,-

 Normal termination of Gaussian 16 at Sat Feb  5 09:01:08 2022.
 Gaussian 16:  ES64L-G16RevC.01  3-Jul-2019

 --------------------------------------------------------------------
 # M062X/def2tzvp int=(grid=ultrafine) nmr=giao guess=read geom=check
 --------------------------------------------------------------------

 -------
 Ac1.xyz
 -------
 Structure from the checkpoint file:  "Ac1_clust-45.chk"
 Charge =  0 Multiplicity = 1

                         Standard orientation:
 ---------------------------------------------------------------------
 Center     Atomic      Atomic             Coordinates (Angstroms)
 Number     Number       Type             X           Y           Z
 ---------------------------------------------------------------------
      1          8           0        4.217945   -0.354139   -0.525875
      2          6           0        3.587936    0.707550    0.042436
      3          6           0        2.300159    1.043710   -0.673362
      4          6           0        1.332539   -0.147240   -0.772422
      5          6           0        0.908442   -0.686649    0.596857
      6          6           0       -0.016620   -1.910200    0.524220
      7          6           0       -1.333704   -1.693889   -0.236045
      8          6           0       -2.207393   -0.567758    0.324436
      9          6           0       -3.549835   -0.438312   -0.402148
     10          6           0       -4.475043    0.647132    0.164885
     11          6           0       -3.926263    2.070414    0.027027
     12          8           0        4.040882    1.285482    1.005160
     13          1           0        5.023596   -0.495291   -0.000876
     14          1           0        2.560156    1.393018   -1.679729
     15          1           0        1.845756    1.877763   -0.133445
     16          1           0        0.452608    0.178693   -1.337522
     17          1           0        1.803987   -0.946702   -1.354769
     18          1           0        1.803809   -0.962792    1.167854
     19          1           0        0.425915    0.116743    1.167511
     20          1           0        0.529742   -2.739742    0.056465
     21          1           0       -0.246746   -2.234220    1.547486
     22          1           0       -1.125557   -1.494002   -1.295393
     23          1           0       -1.904236   -2.631644   -0.218174
     24          1           0       -1.664326    0.382430    0.262495
     25          1           0       -2.388537   -0.745018    1.394440
     26          1           0       -3.364990   -0.234966   -1.466758
     27          1           0       -4.067998   -1.405687   -0.363690
     28          1           0       -5.444334    0.586507   -0.345352
     29          1           0       -4.674463    0.433159    1.223589
     30          1           0       -3.004650    2.208487    0.600816
     31          1           0       -3.702316    2.304331   -1.020259
     32          1           0       -4.649339    2.809644    0.385733
 ---------------------------------------------------------------------

 SCF Done:  E(RM062X) =  -543.542227881     A.U. after    1 cycles

      1  O    Isotropic =   106.6789   Anisotropy =   232.1127

      2  C    Isotropic =    -8.5978   Anisotropy =   128.4893

      3  C    Isotropic =   146.8454   Anisotropy =    29.6898

      4  C    Isotropic =   160.2652   Anisotropy =    15.6831

      5  C    Isotropic =   159.0678   Anisotropy =    24.4926

      6  C    Isotropic =   155.3803   Anisotropy =    12.2971

      7  C    Isotropic =   156.9155   Anisotropy =    29.3604

      8  C    Isotropic =   158.0689   Anisotropy =    19.7770

      9  C    Isotropic =   150.8369   Anisotropy =    25.1915

     10  C    Isotropic =   160.6373   Anisotropy =    17.5028

     11  C    Isotropic =   172.5505   Anisotropy =    21.4884

     12  O    Isotropic =  -182.1314   Anisotropy =   630.1684

     13  H    Isotropic =    25.8312   Anisotropy =    11.3575

     14  H    Isotropic =    29.4010   Anisotropy =     7.7762

     15  H    Isotropic =    29.8005   Anisotropy =     5.8978

     16  H    Isotropic =    30.3217   Anisotropy =     7.2131

     17  H    Isotropic =    30.3830   Anisotropy =     7.2712

     18  H    Isotropic =    30.6310   Anisotropy =     7.7872

     19  H    Isotropic =    30.5480   Anisotropy =     5.1541

     20  H    Isotropic =    30.4539   Anisotropy =     9.0069

     21  H    Isotropic =    30.4302   Anisotropy =     8.8393

     22  H    Isotropic =    30.5818   Anisotropy =     4.7195

     23  H    Isotropic =    30.6233   Anisotropy =     8.1244

     24  H    Isotropic =    30.2575   Anisotropy =     7.4290

     25  H    Isotropic =    31.3829   Anisotropy =     6.0569

     26  H    Isotropic =    30.8545   Anisotropy =     5.8965

     27  H    Isotropic =    30.4267   Anisotropy =     7.2455

     28  H    Isotropic =    30.3362   Anisotropy =    10.1291

     29  H    Isotropic =    30.6752   Anisotropy =     7.9878

     30  H    Isotropic =    30.7872   Anisotropy =     6.7732

     31  H    Isotropic =    31.3665   Anisotropy =     8.3855

     32  H    Isotropic =    30.8328   Anisotropy =    10.9544

 The electronic state is 1-A.
 Alpha  occ. eigenvalues --  -19.67498 -19.62049 -10.67856 -10.55415 -10.54345
 Alpha  occ. eigenvalues --  -10.53365 -10.53172 -10.52995 -10.52986 -10.52886
 Alpha  occ. eigenvalues --  -10.52849 -10.52247  -1.23494  -1.13928  -0.92301
 Alpha  occ. eigenvalues --   -0.90209  -0.87097  -0.82642  -0.77969  -0.73956
 Alpha  occ. eigenvalues --   -0.70771  -0.68101  -0.65173  -0.63928  -0.58159
 Alpha  occ. eigenvalues --   -0.56967  -0.55608  -0.54154  -0.53028  -0.52172
 Alpha  occ. eigenvalues --   -0.50421  -0.49601  -0.48617  -0.47815  -0.45771
 Alpha  occ. eigenvalues --   -0.45007  -0.44465  -0.43292  -0.41960  -0.41166
 Alpha  occ. eigenvalues --   -0.39961  -0.39773  -0.39025  -0.38323  -0.37561
 Alpha  occ. eigenvalues --   -0.37132  -0.36304  -0.35373
 Alpha virt. eigenvalues --    0.04046   0.05454   0.06626   0.07531   0.07927
 Alpha virt. eigenvalues --    0.08515   0.10170   0.10657   0.11765   0.12584
 Alpha virt. eigenvalues --    0.13057   0.13743   0.14046   0.14455   0.14950

 Mulliken charges:
               1
     1  O   -0.408854
     2  C    0.316431
     3  C   -0.288095
     4  C   -0.303712
     5  C   -0.327771
     6  C   -0.282061
     7  C   -0.311621
     8  C   -0.325329
     9  C   -0.265986
    10  C   -0.236961
    11  C   -0.447393
    12  O   -0.327148
    13  H    0.336316
    14  H    0.166328
    15  H    0.165260
    16  H    0.153457
    17  H    0.170813
    18  H    0.162542
    19  H    0.166508
    20  H    0.152613
    21  H    0.153059
    22  H    0.159725
    23  H    0.149864
    24  H    0.147387
    25  H    0.148235
    26  H    0.144719
    27  H    0.138512
    28  H    0.136003
    29  H    0.134739
    30  H    0.140799
    31  H    0.137141
    32  H    0.144482
 Sum of Mulliken charges =  -0.00000

 Dipole moment (field-independent basis, Debye):
    X=             -1.0155    Y=             -1.1484    Z=             -1.2846  Tot=              2.0001
 Quadrupole moment (field-independent basis, Debye-Ang):
   XX=            -78.1627   YY=            -79.3674   ZZ=            -79.6466
   XY=             -6.3675   XZ=             -4.8999   YZ=             -4.3372

 1\1\GINC-NOTCH076\SP\RM062X\def2TZVP\C10H20O2\U6032257\05-Feb-2022\0\\
 # M062X/def2tzvp int=(grid=ultrafine) nmr=giao guess=read geom=check\\
 Ac1.xyz\\0,1\O,0,5.2906439603,-0.7915645065,0.7947353855\C,0,5.2725040
 957,-0.22635973,-0.4410989949\C,0,5.2747887436,-1.2696488953,-1.534388
 9992\C,0,4.1269857292,-2.2848524005,-1.406434646\C,0,2.743136094,-1.63
 16440378,-1.4698539374\C,0,1.5804616789,-2.6187584475,-1.2912839819\C,
 0,1.5224971975,-3.7585772417,-2.3193675544\C,0,1.4266886753,-3.2906284
 251,-3.774526612\C,0,1.2824002002,-4.450824507,-4.764454259\C,0,1.1320

 Normal termination of Gaussian 16 at Sat Feb  5 09:02:30 2022.
