 Gaussian 16, Revision C.01,

 ----------------------------------------------------------------------
 # B3LYP/6-31G(d,p) empiricaldispersion=GD3BJ int=(grid=ultrafine) opt
 freq=noraman
 ----------------------------------------------------------------------

 -------
 Ac1.xyz
 -------
 Symbolic Z-matrix:
 Charge =  0 Multiplicity = 1

 SCF Done:  E(RB3LYP) =  -543.663023982     A.U. after   13 cycles
 SCF Done:  E(RB3LYP) =  -543.665360371     A.U. after   12 cycles
 SCF Done:  E(RB3LYP) =  -543.665274655     A.U. after   11 cycles
 SCF Done:  E(RB3LYP) =  -543.665575211     A.U. after   10 cycles
 SCF Done:  E(RB3LYP) =  -543.665533591     A.U. after   11 cycles
 SCF Done:  E(RB3LYP) =  -543.665617882     A.U. after   10 cycles
 SCF Done:  E(RB3LYP) =  -543.665625603     A.U. after    9 cycles
 SCF Done:  E(RB3LYP) =  -543.665626152     A.U. after    8 cycles
 SCF Done:  E(RB3LYP) =  -543.665626402     A.U. after    8 cycles
 SCF Done:  E(RB3LYP) =  -543.665626604     A.U. after    7 cycles
 SCF Done:  E(RB3LYP) =  -543.665626635     A.U. after    6 cycles
 Optimization completed.
    -- Stationary point found.
 Normal termination of Gaussian 16 at Thu Feb  3 08:43:19 2022.

 ----------------------------------------------------------------------
 #N Geom=AllCheck Guess=TCheck SCRF=Check GenChk RB3LYP/6-31G(d,p) Freq
 ----------------------------------------------------------------------

 Structure from the checkpoint file:  "Ac1_clust-25.chk"
 -------
 Ac1.xyz
 -------
 Charge =  0 Multiplicity = 1

 SCF Done:  E(RB3LYP) =  -543.665626635     A.U. after    1 cycles

                      1                      2                      3
                      A                      A                      A
 Frequencies --     19.5790                34.1067                46.6279
 Red. masses --      4.2746                 7.7762                 2.3205
 Frc consts  --      0.0010                 0.0053                 0.0030
 IR Inten    --      0.1696                 1.2245                 0.0655

                      4                      5                      6
                      A                      A                      A
 Frequencies --     49.5841                77.6057               102.8648
 Red. masses --      3.2083                 4.2675                 2.2697
 Frc consts  --      0.0046                 0.0151                 0.0142
 IR Inten    --      0.0052                 0.7165                 0.0709

                      7                      8                      9
                      A                      A                      A
 Frequencies --    136.2429               153.7357               171.8522
 Red. masses --      1.7441                 2.2440                 2.3035
 Frc consts  --      0.0191                 0.0312                 0.0401
 IR Inten    --      0.1613                 0.1856                 0.4091

                     10                     11                     12
                      A                      A                      A
 Frequencies --    211.4820               254.2378               262.3780
 Red. masses --      1.7747                 1.9974                 2.4757
 Frc consts  --      0.0468                 0.0761                 0.1004
 IR Inten    --      0.1355                 1.1201                 1.5867

                     13                     14                     15
                      A                      A                      A
 Frequencies --    287.7720               332.2387               380.1731
 Red. masses --      1.6804                 3.2516                 2.3975
 Frc consts  --      0.0820                 0.2115                 0.2042
 IR Inten    --      0.2068                 1.0394                 0.7518

                     16                     17                     18
                      A                      A                      A
 Frequencies --    433.0659               490.4160               520.6620
 Red. masses --      2.2290                 2.2035                 1.7549
 Frc consts  --      0.2463                 0.3122                 0.2803
 IR Inten    --      1.0629                 2.3299                19.0519

                     19                     20                     21
                      A                      A                      A
 Frequencies --    523.2282               619.9720               680.2539
 Red. masses --      3.2460                 3.2369                 1.3841
 Frc consts  --      0.5236                 0.7330                 0.3774
 IR Inten    --     25.0063                13.5999                96.4354

                     22                     23                     24
                      A                      A                      A
 Frequencies --    735.7082               748.9724               766.4247
 Red. masses --      1.1960                 1.1847                 1.4824
 Frc consts  --      0.3814                 0.3915                 0.5130
 IR Inten    --     12.7710                 3.8907                 3.4525

                     25                     26                     27
                      A                      A                      A
 Frequencies --    808.2308               829.6213               868.7624
 Red. masses --      1.9501                 1.4983                 2.3479
 Frc consts  --      0.7506                 0.6076                 1.0441
 IR Inten    --      5.3545                 1.4393                 4.4301

                     28                     29                     30
                      A                      A                      A
 Frequencies --    884.8662               910.2549               924.3500
 Red. masses --      2.1416                 1.7520                 1.9797
 Frc consts  --      0.9880                 0.8553                 0.9966
 IR Inten    --      6.2555                 0.6388                 2.4750

                     31                     32                     33
                      A                      A                      A
 Frequencies --    966.0741               988.2121              1034.9257
 Red. masses --      1.9103                 1.6979                 2.0582
 Frc consts  --      1.0504                 0.9770                 1.2989
 IR Inten    --      2.3262                 0.4394                 1.3103

                     34                     35                     36
                      A                      A                      A
 Frequencies --   1037.3904              1075.7429              1082.8869
 Red. masses --      1.5812                 2.4563                 2.1525
 Frc consts  --      1.0026                 1.6748                 1.4872
 IR Inten    --      1.3567                 1.7471                 1.1035

                     37                     38                     39
                      A                      A                      A
 Frequencies --   1086.6892              1106.7431              1126.0355
 Red. masses --      1.7091                 2.2271                 1.7887
 Frc consts  --      1.1892                 1.6073                 1.3362
 IR Inten    --      5.1353                 0.7564               104.4219

                     40                     41                     42
                      A                      A                      A
 Frequencies --   1141.1109              1178.1919              1198.3108
 Red. masses --      1.8950                 2.0796                 1.5228
 Frc consts  --      1.4538                 1.7008                 1.2883
 IR Inten    --     25.6226                86.8821                98.1380

                     43                     44                     45
                      A                      A                      A
 Frequencies --   1220.1599              1254.6985              1264.5660
 Red. masses --      1.4559                 1.3547                 1.2983
 Frc consts  --      1.2771                 1.2565                 1.2233
 IR Inten    --      4.5146                 3.3715                 2.3130

                     46                     47                     48
                      A                      A                      A
 Frequencies --   1298.9423              1310.4754              1319.2429
 Red. masses --      1.2790                 1.3324                 1.2697
 Frc consts  --      1.2715                 1.3482                 1.3019
 IR Inten    --      0.3779                 0.5353                 3.0631

                     49                     50                     51
                      A                      A                      A
 Frequencies --   1330.7807              1340.6127              1347.5566
 Red. masses --      1.3121                 1.1276                 1.0715
 Frc consts  --      1.3691                 1.1941                 1.1464
 IR Inten    --     10.4205                 2.3349                 1.5092

                     52                     53                     54
                      A                      A                      A
 Frequencies --   1356.5836              1383.2519              1387.9927
 Red. masses --      1.2293                 1.3675                 1.4065
 Frc consts  --      1.3330                 1.5417                 1.5964
 IR Inten    --      2.3419                 8.6804                 2.0586

                     55                     56                     57
                      A                      A                      A
 Frequencies --   1395.0030              1416.0628              1421.5806
 Red. masses --      1.4740                 1.4930                 1.5700
 Frc consts  --      1.6900                 1.7639                 1.8694
 IR Inten    --      1.3388                 3.7850                 4.1238

                     58                     59                     60
                      A                      A                      A
 Frequencies --   1426.7139              1430.0578              1471.2089
 Red. masses --      2.1130                 1.2873                 1.0976
 Frc consts  --      2.5341                 1.5511                 1.3998
 IR Inten    --     53.2736                 4.6655                15.6930

                     61                     62                     63
                      A                      A                      A
 Frequencies --   1493.7514              1495.5852              1502.0503
 Red. masses --      1.0846                 1.0835                 1.0672
 Frc consts  --      1.4258                 1.4280                 1.4186
 IR Inten    --      1.3537                 2.3504                 1.9534

                     64                     65                     66
                      A                      A                      A
 Frequencies --   1504.4070              1506.6149              1512.3875
 Red. masses --      1.0759                 1.0839                 1.0806
 Frc consts  --      1.4347                 1.4496                 1.4563
 IR Inten    --      2.1736                 2.5961                 0.5363

                     67                     68                     69
                      A                      A                      A
 Frequencies --   1517.1931              1521.6777              1523.5397
 Red. masses --      1.0697                 1.0933                 1.0614
 Frc consts  --      1.4507                 1.4915                 1.4516
 IR Inten    --      5.7431                 1.8022                 5.8599

                     70                     71                     72
                      A                      A                      A
 Frequencies --   1841.9251              3012.4829              3015.4833
 Red. masses --      9.6095                 1.0651                 1.0638
 Frc consts  --     19.2085                 5.6951                 5.6993
 IR Inten    --    228.8548                 0.3845                14.4438

                     73                     74                     75
                      A                      A                      A
 Frequencies --   3019.9035              3023.7235              3025.4957
 Red. masses --      1.0670                 1.0631                 1.0614
 Frc consts  --      5.7331                 5.7267                 5.7243
 IR Inten    --     36.8127                15.1793                49.3235

                     76                     77                     78
                      A                      A                      A
 Frequencies --   3038.9755              3041.0241              3048.0180
 Red. masses --      1.0617                 1.0383                 1.0650
 Frc consts  --      5.7773                 5.6573                 5.8296
 IR Inten    --      8.8685                21.3963                22.0404

                     79                     80                     81
                      A                      A                      A
 Frequencies --   3050.2321              3054.0100              3058.4938
 Red. masses --      1.0664                 1.0931                 1.0969
 Frc consts  --      5.8457                 6.0070                 6.0455
 IR Inten    --     29.7253                29.6192                 7.8216

                     82                     83                     84
                      A                      A                      A
 Frequencies --   3062.0475              3068.5561              3077.4505
 Red. masses --      1.0957                 1.0962                 1.1009
 Frc consts  --      6.0529                 6.0817                 6.1432
 IR Inten    --     28.1365                63.6235                34.9664

                     85                     86                     87
                      A                      A                      A
 Frequencies --   3080.4787              3088.8490              3103.4425
 Red. masses --      1.1009                 1.0993                 1.1036
 Frc consts  --      6.1548                 6.1799                 6.2627
 IR Inten    --     49.6799                19.7224                62.6618

                     88                     89                     90
                      A                      A                      A
 Frequencies --   3108.4802              3118.1189              3751.2261
 Red. masses --      1.1016                 1.1015                 1.0641
 Frc consts  --      6.2713                 6.3100                 8.8219
 IR Inten    --     45.8653                47.4856                46.6480

 - Thermochemistry -
 -------------------
 Temperature   298.150 Kelvin.  Pressure   1.00000 Atm.
 Atom     1 has atomic number  8 and mass  15.99491

 Molecular mass:   172.14633 amu.
 Principal axes and moments of inertia in atomic units:
                           1         2         3
     Eigenvalues --  1104.455726447.912436915.56979
           X            0.99994   0.00747   0.00810
           Y           -0.00749   0.99997   0.00219
           Z           -0.00808  -0.00225   0.99996
 This molecule is an asymmetric top.
 Rotational symmetry number  1.
 Warning -- assumption of classical behavior for rotation
           may cause significant error
 Rotational temperatures (Kelvin)      0.07842     0.01343     0.01252
 Rotational constants (GHZ):           1.63405     0.27990     0.26097
 Zero-point vibrational energy     765183.5 (Joules/Mol)
                                  182.88325 (Kcal/Mol)
 Warning -- explicit consideration of  20 degrees of freedom as
           vibrations may cause significant error
 Vibrational temperatures:     28.17    49.07    67.09    71.34   111.66
          (Kelvin)            148.00   196.02   221.19   247.26   304.28
                              365.79   377.50   414.04   478.02   546.98
                              623.09   705.60   749.12   752.81   892.00
                              978.73  1058.52  1077.60  1102.71  1162.86
                             1193.64  1249.96  1273.13  1309.65  1329.93
                             1389.97  1421.82  1489.03  1492.57  1547.75
                             1558.03  1563.50  1592.36  1620.11  1641.80
                             1695.16  1724.10  1755.54  1805.23  1819.43
                             1868.89  1885.48  1898.10  1914.70  1928.84
                             1938.83  1951.82  1990.19  1997.01  2007.10
                             2037.40  2045.34  2052.72  2057.53  2116.74
                             2149.18  2151.81  2161.12  2164.51  2167.68
                             2175.99  2182.90  2189.35  2192.03  2650.12
                             4334.29  4338.61  4344.97  4350.46  4353.01
                             4372.41  4375.36  4385.42  4388.60  4394.04
                             4400.49  4405.60  4414.97  4427.76  4432.12
                             4444.16  4465.16  4472.41  4486.28  5397.18

 Zero-point correction=                           0.291443 (Hartree/Particle)
 Thermal correction to Energy=                    0.306163
 Thermal correction to Enthalpy=                  0.307107
 Thermal correction to Gibbs Free Energy=         0.246967
 Sum of electronic and zero-point Energies=           -543.374184
 Sum of electronic and thermal Energies=              -543.359463
 Sum of electronic and thermal Enthalpies=            -543.358519
 Sum of electronic and thermal Free Energies=         -543.418660

                     E (Thermal)             CV                S
                      KCal/Mol        Cal/Mol-Kelvin    Cal/Mol-Kelvin
 Total                  192.120             52.561            126.577
 Electronic               0.000              0.000              0.000
 Translational            0.889              2.981             41.337
 Rotational               0.889              2.981             32.266
 Vibrational            190.343             46.600             52.974
 Vibration     1          0.593              1.986              6.676
 Vibration     2          0.594              1.983              5.575
 Vibration     3          0.595              1.979              4.956
 Vibration     4          0.595              1.978              4.834
 Vibration     5          0.599              1.964              3.951
 Vibration     6          0.605              1.947              3.399
 Vibration     7          0.614              1.917              2.856
 Vibration     8          0.619              1.899              2.625
 Vibration     9          0.626              1.877              2.415
 Vibration    10          0.643              1.823              2.031
 Vibration    11          0.665              1.756              1.701
 Vibration    12          0.670              1.742              1.646
 Vibration    13          0.685              1.696              1.487
 Vibration    14          0.714              1.611              1.249
 Vibration    15          0.750              1.512              1.038
 Vibration    16          0.794              1.398              0.849
 Vibration    17          0.846              1.271              0.683
 Vibration    18          0.876              1.204              0.608
 Vibration    19          0.878              1.199              0.603
 Vibration    20          0.980              0.990              0.417

 Optimization completed.
    -- Stationary point found.
 Normal termination of Gaussian 16 at Thu Feb  3 08:44:42 2022.

 ----------------------------------------------------------------------
 # M062X/def2tzvp int=(grid=ultrafine) pop=nbo7 polar prop=efg volume g
 uess=read geom=check
 ----------------------------------------------------------------------

 -------
 Ac1.xyz
 -------
 Structure from the checkpoint file:  "Ac1_clust-25.chk"
 Charge =  0 Multiplicity = 1

 SCF Done:  E(RM062X) =  -543.540398192     A.U. after   11 cycles

  Exact polarizability:     144.067      -0.823     120.873      -0.859      -2.473     111.801
 Approx polarizability:     141.857      -2.018     149.423      -3.111      -3.723     143.889

 Summary of Natural Population Analysis:

                                     Natural Population
             Natural    ---------------------------------------------
  Atom No    Charge        Core      Valence    Rydberg      Total
 --------------------------------------------------------------------
    O  1   -0.68717      2.00000     6.66521    0.02197     8.68717
    C  2    0.79728      1.99999     3.16590    0.03683     5.20272
    C  3   -0.51140      1.99999     4.49861    0.01279     6.51140
    C  4   -0.39213      1.99999     4.37992    0.01222     6.39213
    C  5   -0.39905      1.99999     4.38769    0.01137     6.39905
    C  6   -0.39810      1.99999     4.38658    0.01152     6.39810
    C  7   -0.38981      1.99999     4.37905    0.01077     6.38981
    C  8   -0.39272      1.99999     4.38159    0.01114     6.39272
    C  9   -0.39664      1.99999     4.38555    0.01110     6.39664
    C 10   -0.39041      1.99999     4.38012    0.01030     6.39041
    C 11   -0.60879      1.99999     4.59997    0.00883     6.60879
    O 12   -0.60195      2.00000     6.57555    0.02640     8.60195
    H 13    0.49265      0.00000     0.50394    0.00341     0.50735
    H 14    0.24102      0.00000     0.75781    0.00117     0.75898
    H 15    0.23080      0.00000     0.76769    0.00151     0.76920
    H 16    0.20252      0.00000     0.79586    0.00163     0.79748
    H 17    0.21567      0.00000     0.78244    0.00189     0.78433
    H 18    0.21028      0.00000     0.78776    0.00196     0.78972
    H 19    0.19373      0.00000     0.80438    0.00189     0.80627
    H 20    0.19174      0.00000     0.80622    0.00203     0.80826
    H 21    0.20539      0.00000     0.79306    0.00156     0.79461
    H 22    0.20635      0.00000     0.79226    0.00139     0.79365
    H 23    0.19550      0.00000     0.80261    0.00189     0.80450
    H 24    0.19999      0.00000     0.79830    0.00171     0.80001
    H 25    0.19152      0.00000     0.80650    0.00198     0.80848
    H 26    0.19241      0.00000     0.80552    0.00207     0.80759
    H 27    0.19772      0.00000     0.80073    0.00155     0.80228
    H 28    0.19925      0.00000     0.79919    0.00155     0.80075
    H 29    0.19345      0.00000     0.80470    0.00185     0.80655
    H 30    0.20105      0.00000     0.79777    0.00119     0.79895
    H 31    0.20960      0.00000     0.78946    0.00095     0.79040
    H 32    0.20027      0.00000     0.79842    0.00131     0.79973
 ====================================================================
 * Total *  0.00000     23.99992    71.78035    0.21974    96.00000

 1\1\GINC-NOTCH075\SP\RM062X\def2TZVP\C10H20O2\U6032257\03-Feb-2022\0\\
 # M062X/def2tzvp int=(grid=ultrafine) pop=nbo7 polar prop=efg volume g
 uess=read geom=check\\Ac1.xyz\\0,1\O,0,6.4329272407,-0.4548345833,0.12
 94097344\C,0,5.0890035422,-0.6386807278,0.1238602961\C,0,4.7291804881,
 -2.1057867315,0.0481236306\C,0,3.2470269463,-2.3467358378,-0.239638025
 8\C,0,2.8337256419,-1.9563068511,-1.6612685909\C,0,1.3403576302,-2.181
 7659552,-1.9247831373\C,0,0.8822064862,-1.8355725655,-3.3559461683\C,0
 ,0.8705489452,-3.0104468173,-4.3461220725\C,0,2.2261301533,-3.68431950

 Normal termination of Gaussian 16 at Thu Feb  3 08:47:57 2022.
 Gaussian 16:  ES64L-G16RevC.01  3-Jul-2019

 --------------------------------------------------------------------
 # M062X/def2tzvp int=(grid=ultrafine) nmr=giao guess=read geom=check
 --------------------------------------------------------------------

 -------
 Ac1.xyz
 -------
 Structure from the checkpoint file:  "Ac1_clust-25.chk"
 Charge =  0 Multiplicity = 1

                         Standard orientation:
 ---------------------------------------------------------------------
 Center     Atomic      Atomic             Coordinates (Angstroms)
 Number     Number       Type             X           Y           Z
 ---------------------------------------------------------------------
      1          8           0        4.362462   -1.580567   -0.563493
      2          6           0        3.664195   -0.453818   -0.275707
      3          6           0        2.813438   -0.628391    0.962576
      4          6           0        1.807473    0.505058    1.164987
      5          6           0        0.676826    0.504332    0.132551
      6          6           0       -0.308753    1.660965    0.335660
      7          6           0       -1.486272    1.682510   -0.659813
      8          6           0       -2.765581    0.978171   -0.182125
      9          6           0       -2.618556   -0.515501    0.127372
     10          6           0       -3.930834   -1.201650    0.535227
     11          6           0       -4.976084   -1.274551   -0.581801
     12          8           0        3.757924    0.553263   -0.943190
     13          1           0        4.895123   -1.370905   -1.349255
     14          1           0        3.506665   -0.698616    1.810726
     15          1           0        2.317750   -1.604087    0.902596
     16          1           0        1.382773    0.419536    2.172615
     17          1           0        2.339738    1.461770    1.123051
     18          1           0        1.108998    0.580384   -0.871750
     19          1           0        0.150317   -0.456647    0.174686
     20          1           0       -0.699702    1.638177    1.363085
     21          1           0        0.254483    2.598706    0.251706
     22          1           0       -1.745697    2.723644   -0.885401
     23          1           0       -1.161415    1.242534   -1.612703
     24          1           0       -3.537564    1.117054   -0.948581
     25          1           0       -3.137293    1.488319    0.718176
     26          1           0       -2.198033   -1.030268   -0.748435
     27          1           0       -1.892211   -0.646166    0.938081
     28          1           0       -3.704456   -2.219193    0.877409
     29          1           0       -4.356367   -0.677530    1.401791
     30          1           0       -5.304610   -0.280322   -0.899415
     31          1           0       -5.864663   -1.824324   -0.255667
     32          1           0       -4.572036   -1.786376   -1.462807
 ---------------------------------------------------------------------

 SCF Done:  E(RM062X) =  -543.540398192     A.U. after    1 cycles

      1  O    Isotropic =   102.2459   Anisotropy =   243.2298

      2  C    Isotropic =    -9.1899   Anisotropy =   123.8362

      3  C    Isotropic =   150.1068   Anisotropy =    36.1329

      4  C    Isotropic =   158.7430   Anisotropy =    24.8238

      5  C    Isotropic =   150.9192   Anisotropy =    40.7253

      6  C    Isotropic =   152.7343   Anisotropy =    30.7575

      7  C    Isotropic =   155.5167   Anisotropy =    14.7025

      8  C    Isotropic =   153.3626   Anisotropy =    21.0762

      9  C    Isotropic =   152.1560   Anisotropy =    22.9321

     10  C    Isotropic =   160.7640   Anisotropy =    17.9836

     11  C    Isotropic =   172.9456   Anisotropy =    22.1548

     12  O    Isotropic =  -160.6199   Anisotropy =   654.6077

     13  H    Isotropic =    25.7157   Anisotropy =    11.5967

     14  H    Isotropic =    29.5411   Anisotropy =     8.7198

     15  H    Isotropic =    29.6730   Anisotropy =     5.7508

     16  H    Isotropic =    30.7557   Anisotropy =     7.0720

     17  H    Isotropic =    30.1828   Anisotropy =     6.4570

     18  H    Isotropic =    30.3694   Anisotropy =     6.4409

     19  H    Isotropic =    30.7759   Anisotropy =     8.5930

     20  H    Isotropic =    30.9660   Anisotropy =     4.0042

     21  H    Isotropic =    30.2666   Anisotropy =     7.4280

     22  H    Isotropic =    30.0973   Anisotropy =     9.3645

     23  H    Isotropic =    30.9400   Anisotropy =     5.8482

     24  H    Isotropic =    30.1688   Anisotropy =     8.1898

     25  H    Isotropic =    31.0409   Anisotropy =     6.8936

     26  H    Isotropic =    31.0629   Anisotropy =     5.2646

     27  H    Isotropic =    30.1940   Anisotropy =     8.7912

     28  H    Isotropic =    30.3149   Anisotropy =     9.1062

     29  H    Isotropic =    30.7954   Anisotropy =     7.7522

     30  H    Isotropic =    30.7876   Anisotropy =     7.2569

     31  H    Isotropic =    30.8973   Anisotropy =    11.1251

     32  H    Isotropic =    31.3821   Anisotropy =     8.8037

 The electronic state is 1-A.
 Alpha  occ. eigenvalues --  -19.67559 -19.62217 -10.68037 -10.55541 -10.53675
 Alpha  occ. eigenvalues --  -10.52855 -10.52677 -10.52645 -10.52635 -10.52603
 Alpha  occ. eigenvalues --  -10.52554 -10.52065  -1.23636  -1.14091  -0.91730
 Alpha  occ. eigenvalues --   -0.89985  -0.86760  -0.82571  -0.78038  -0.74134
 Alpha  occ. eigenvalues --   -0.69973  -0.66360  -0.65321  -0.63745  -0.58726
 Alpha  occ. eigenvalues --   -0.57774  -0.55754  -0.54399  -0.52318  -0.51325
 Alpha  occ. eigenvalues --   -0.50768  -0.48559  -0.48432  -0.47374  -0.46147
 Alpha  occ. eigenvalues --   -0.44917  -0.44045  -0.42583  -0.41136  -0.40481
 Alpha  occ. eigenvalues --   -0.40207  -0.39637  -0.38694  -0.38544  -0.37518
 Alpha  occ. eigenvalues --   -0.36049  -0.35938  -0.35726
 Alpha virt. eigenvalues --    0.04294   0.05933   0.06784   0.07642   0.08306
 Alpha virt. eigenvalues --    0.08927   0.09827   0.10695   0.11784   0.12582
 Alpha virt. eigenvalues --    0.12987   0.13574   0.14491   0.15265   0.15446

 Mulliken charges:
               1
     1  O   -0.409234
     2  C    0.342729
     3  C   -0.328047
     4  C   -0.254942
     5  C   -0.347601
     6  C   -0.300879
     7  C   -0.262843
     8  C   -0.301625
     9  C   -0.302709
    10  C   -0.238918
    11  C   -0.439309
    12  O   -0.338166
    13  H    0.334431
    14  H    0.175689
    15  H    0.174391
    16  H    0.145001
    17  H    0.166546
    18  H    0.175369
    19  H    0.147054
    20  H    0.149330
    21  H    0.151901
    22  H    0.143708
    23  H    0.151374
    24  H    0.139656
    25  H    0.148086
    26  H    0.154106
    27  H    0.137789
    28  H    0.134682
    29  H    0.133475
    30  H    0.139397
    31  H    0.142601
    32  H    0.136961
 Sum of Mulliken charges =  -0.00000

 Dipole moment (field-independent basis, Debye):
    X=             -0.2161    Y=             -1.1402    Z=              0.8733  Tot=              1.4524
 Quadrupole moment (field-independent basis, Debye-Ang):
   XX=            -76.5420   YY=            -79.5133   ZZ=            -75.6984
   XY=             -4.9450   XZ=              0.5835   YZ=              2.3014

 1\1\GINC-NOTCH075\SP\RM062X\def2TZVP\C10H20O2\U6032257\03-Feb-2022\0\\
 # M062X/def2tzvp int=(grid=ultrafine) nmr=giao guess=read geom=check\\
 Ac1.xyz\\0,1\O,0,6.4329272407,-0.4548345833,0.1294097344\C,0,5.0890035
 422,-0.6386807278,0.1238602961\C,0,4.7291804881,-2.1057867315,0.048123
 6306\C,0,3.2470269463,-2.3467358378,-0.2396380258\C,0,2.8337256419,-1.
 9563068511,-1.6612685909\C,0,1.3403576302,-2.1817659552,-1.9247831373\
 C,0,0.8822064862,-1.8355725655,-3.3559461683\C,0,0.8705489452,-3.01044
 68173,-4.3461220725\C,0,2.2261301533,-3.6843195013,-4.5843540076\C,0,2

 Normal termination of Gaussian 16 at Thu Feb  3 08:49:17 2022.
