 Gaussian 16, Revision C.01,

 ----------------------------------------------------------------------
 # B3LYP/6-31G(d,p) empiricaldispersion=GD3BJ int=(grid=ultrafine) opt
 freq=noraman
 ----------------------------------------------------------------------

 -------
 Ac1.xyz
 -------
 Symbolic Z-matrix:
 Charge =  0 Multiplicity = 1

 SCF Done:  E(RB3LYP) =  -543.666676318     A.U. after   13 cycles
 SCF Done:  E(RB3LYP) =  -543.669462984     A.U. after   12 cycles
 SCF Done:  E(RB3LYP) =  -543.669717937     A.U. after   11 cycles
 SCF Done:  E(RB3LYP) =  -543.669776044     A.U. after   10 cycles
 SCF Done:  E(RB3LYP) =  -543.669847571     A.U. after   10 cycles
 SCF Done:  E(RB3LYP) =  -543.669852065     A.U. after    9 cycles
 SCF Done:  E(RB3LYP) =  -543.669878538     A.U. after   10 cycles
 SCF Done:  E(RB3LYP) =  -543.669880256     A.U. after    8 cycles
 SCF Done:  E(RB3LYP) =  -543.669880319     A.U. after    7 cycles
 SCF Done:  E(RB3LYP) =  -543.669880468     A.U. after    7 cycles
 Optimization completed.
    -- Stationary point found.
 Normal termination of Gaussian 16 at Sat Feb  5 09:00:27 2022.

 ----------------------------------------------------------------------
 #N Geom=AllCheck Guess=TCheck SCRF=Check GenChk RB3LYP/6-31G(d,p) Freq
 ----------------------------------------------------------------------

 Structure from the checkpoint file:  "Ac1_clust-7.chk"
 -------
 Ac1.xyz
 -------
 Charge =  0 Multiplicity = 1

 SCF Done:  E(RB3LYP) =  -543.669880468     A.U. after    1 cycles

                      1                      2                      3
                      A                      A                      A
 Frequencies --     19.8550                39.9085                48.0865
 Red. masses --      4.2775                 7.7924                 2.9452
 Frc consts  --      0.0010                 0.0073                 0.0040
 IR Inten    --      0.1095                 0.8683                 0.1563

                      4                      5                      6
                      A                      A                      A
 Frequencies --     56.3741                86.8691               127.1357
 Red. masses --      3.0496                 3.0949                 2.5040
 Frc consts  --      0.0057                 0.0138                 0.0238
 IR Inten    --      0.5304                 0.6209                 0.2959

                      7                      8                      9
                      A                      A                      A
 Frequencies --    152.7120               162.8960               226.3515
 Red. masses --      2.4432                 2.6090                 1.5015
 Frc consts  --      0.0336                 0.0408                 0.0453
 IR Inten    --      0.4128                 0.0672                 0.0604

                     10                     11                     12
                      A                      A                      A
 Frequencies --    251.2480               269.0779               282.6489
 Red. masses --      2.2792                 1.9177                 1.9867
 Frc consts  --      0.0848                 0.0818                 0.0935
 IR Inten    --      1.2624                 0.3294                 0.9313

                     13                     14                     15
                      A                      A                      A
 Frequencies --    300.3009               315.5841               381.8195
 Red. masses --      1.7950                 2.7357                 2.3421
 Frc consts  --      0.0954                 0.1605                 0.2012
 IR Inten    --      0.2051                 0.5077                 0.7605

                     16                     17                     18
                      A                      A                      A
 Frequencies --    448.9933               507.9920               518.9227
 Red. masses --      2.3165                 2.8487                 1.7206
 Frc consts  --      0.2751                 0.4331                 0.2730
 IR Inten    --      2.7913                15.5229                17.3769

                     19                     20                     21
                      A                      A                      A
 Frequencies --    565.5507               625.6953               680.5860
 Red. masses --      2.8406                 2.8944                 1.3807
 Frc consts  --      0.5353                 0.6676                 0.3768
 IR Inten    --     15.8049                 7.3896                98.1806

                     22                     23                     24
                      A                      A                      A
 Frequencies --    720.6322               747.7476               772.4771
 Red. masses --      1.2630                 1.2663                 1.4430
 Frc consts  --      0.3864                 0.4171                 0.5073
 IR Inten    --     10.6126                 3.0948                 8.2918

                     25                     26                     27
                      A                      A                      A
 Frequencies --    808.1612               825.9901               858.2521
 Red. masses --      1.6727                 2.5890                 1.7526
 Frc consts  --      0.6437                 1.0407                 0.7606
 IR Inten    --      3.5536                 3.4719                 4.1455

                     28                     29                     30
                      A                      A                      A
 Frequencies --    880.2400               889.8305               930.4796
 Red. masses --      2.2040                 1.9957                 1.9054
 Frc consts  --      1.0061                 0.9310                 0.9720
 IR Inten    --      2.6809                 3.6324                 0.4773

                     31                     32                     33
                      A                      A                      A
 Frequencies --    963.9034               992.4130              1008.1780
 Red. masses --      1.5365                 1.6167                 1.8301
 Frc consts  --      0.8411                 0.9382                 1.0960
 IR Inten    --      1.9894                 1.2916                 1.4903

                     34                     35                     36
                      A                      A                      A
 Frequencies --   1054.3332              1064.1930              1072.7870
 Red. masses --      1.6664                 1.6848                 2.0532
 Frc consts  --      1.0914                 1.1242                 1.3923
 IR Inten    --      0.2688                 4.5565                 0.9794

                     37                     38                     39
                      A                      A                      A
 Frequencies --   1087.2923              1115.5156              1128.0544
 Red. masses --      2.0719                 2.1187                 1.8669
 Frc consts  --      1.4432                 1.5533                 1.3997
 IR Inten    --      2.5130                 0.1322                85.8235

                     40                     41                     42
                      A                      A                      A
 Frequencies --   1139.6227              1171.2875              1208.6096
 Red. masses --      1.8097                 2.0401                 1.5555
 Frc consts  --      1.3847                 1.6490                 1.3387
 IR Inten    --     10.9431               137.2692                53.1582

                     43                     44                     45
                      A                      A                      A
 Frequencies --   1209.2872              1240.4219              1269.9083
 Red. masses --      1.4587                 1.3797                 1.3563
 Frc consts  --      1.2568                 1.2508                 1.2887
 IR Inten    --     34.5772                 1.3469                 1.4965

                     46                     47                     48
                      A                      A                      A
 Frequencies --   1300.6529              1310.4000              1323.2104
 Red. masses --      1.2787                 1.3192                 1.3784
 Frc consts  --      1.2745                 1.3347                 1.4219
 IR Inten    --      0.2681                 3.0505                 8.3119

                     49                     50                     51
                      A                      A                      A
 Frequencies --   1333.4181              1339.4148              1351.1719
 Red. masses --      1.2328                 1.1274                 1.2690
 Frc consts  --      1.2914                 1.1916                 1.3650
 IR Inten    --      4.6472                 4.1739                 4.3465

                     52                     53                     54
                      A                      A                      A
 Frequencies --   1366.7659              1388.2303              1394.5171
 Red. masses --      1.1669                 1.4037                 1.3739
 Frc consts  --      1.2843                 1.5938                 1.5742
 IR Inten    --      2.3403                 4.3668                 6.5095

                     55                     56                     57
                      A                      A                      A
 Frequencies --   1397.9622              1423.1577              1424.4102
 Red. masses --      1.4323                 1.4164                 1.5139
 Frc consts  --      1.6492                 1.6902                 1.8097
 IR Inten    --      1.4011                 0.8632                 3.7103

                     58                     59                     60
                      A                      A                      A
 Frequencies --   1426.7143              1430.7409              1471.0864
 Red. masses --      2.0872                 1.3608                 1.0972
 Frc consts  --      2.5031                 1.6412                 1.3990
 IR Inten    --     52.4257                 4.8082                16.6279

                     61                     62                     63
                      A                      A                      A
 Frequencies --   1492.9421              1500.3887              1503.3595
 Red. masses --      1.0762                 1.0821                 1.0702
 Frc consts  --      1.4133                 1.4352                 1.4250
 IR Inten    --      0.9762                 2.6624                 0.1901

                     64                     65                     66
                      A                      A                      A
 Frequencies --   1505.8959              1511.3412              1513.2335
 Red. masses --      1.0752                 1.0868                 1.0935
 Frc consts  --      1.4366                 1.4626                 1.4752
 IR Inten    --      2.2666                 5.7100                 3.4071

                     67                     68                     69
                      A                      A                      A
 Frequencies --   1517.3799              1523.5645              1530.4501
 Red. masses --      1.0597                 1.0635                 1.0856
 Frc consts  --      1.4376                 1.4544                 1.4982
 IR Inten    --      4.5417                 4.2559                 3.1289

                     70                     71                     72
                      A                      A                      A
 Frequencies --   1833.3745              3013.1457              3021.5480
 Red. masses --      9.5439                 1.0650                 1.0639
 Frc consts  --     18.9006                 5.6971                 5.7229
 IR Inten    --    290.7915                19.5002                 4.5481

                     73                     74                     75
                      A                      A                      A
 Frequencies --   3025.8730              3027.0348              3035.0357
 Red. masses --      1.0626                 1.0648                 1.0638
 Frc consts  --      5.7325                 5.7483                 5.7736
 IR Inten    --     11.1526                63.3000                49.4277

                     76                     77                     78
                      A                      A                      A
 Frequencies --   3038.6243              3043.3050              3043.6008
 Red. masses --      1.0417                 1.0637                 1.0658
 Frc consts  --      5.6672                 5.8043                 5.8173
 IR Inten    --     23.7266                19.8639                27.3939

                     79                     80                     81
                      A                      A                      A
 Frequencies --   3052.3999              3055.8941              3059.2596
 Red. masses --      1.0675                 1.0941                 1.0930
 Frc consts  --      5.8599                 6.0196                 6.0271
 IR Inten    --     18.9452                12.0072                22.5662

                     82                     83                     84
                      A                      A                      A
 Frequencies --   3062.6533              3073.9409              3084.1738
 Red. masses --      1.1024                 1.0976                 1.0984
 Frc consts  --      6.0923                 6.1104                 6.1559
 IR Inten    --     31.9560                59.2465                 3.4911

                     85                     86                     87
                      A                      A                      A
 Frequencies --   3087.9420              3093.2829              3105.5477
 Red. masses --      1.1021                 1.0940                 1.1013
 Frc consts  --      6.1915                 6.1677                 6.2580
 IR Inten    --     70.8340                37.5022                46.3609

                     88                     89                     90
                      A                      A                      A
 Frequencies --   3111.2346              3118.3710              3750.6513
 Red. masses --      1.0993                 1.1014                 1.0641
 Frc consts  --      6.2695                 6.3105                 8.8192
 IR Inten    --     37.4469                48.6700                45.8860

 - Thermochemistry -
 -------------------
 Temperature   298.150 Kelvin.  Pressure   1.00000 Atm.
 Atom     1 has atomic number  8 and mass  15.99491

 Molecular mass:   172.14633 amu.
 Principal axes and moments of inertia in atomic units:
                           1         2         3
     Eigenvalues --  1687.342773733.993014964.37568
           X            0.99926  -0.03856  -0.00134
           Y            0.03856   0.99926  -0.00095
           Z            0.00138   0.00090   1.00000
 This molecule is an asymmetric top.
 Rotational symmetry number  1.
 Warning -- assumption of classical behavior for rotation
           may cause significant error
 Rotational temperatures (Kelvin)      0.05133     0.02320     0.01745
 Rotational constants (GHZ):           1.06958     0.48333     0.36354
 Zero-point vibrational energy     767078.6 (Joules/Mol)
                                  183.33618 (Kcal/Mol)
 Warning -- explicit consideration of  19 degrees of freedom as
           vibrations may cause significant error
 Vibrational temperatures:     28.57    57.42    69.19    81.11   124.99
          (Kelvin)            182.92   219.72   234.37   325.67   361.49
                              387.14   406.67   432.07   454.06   549.35
                              646.00   730.89   746.61   813.70   900.24
                              979.21  1036.83  1075.84  1111.42  1162.76
                             1188.42  1234.83  1266.47  1280.27  1338.75
                             1386.84  1427.86  1450.54  1516.95  1531.14
                             1543.50  1564.37  1604.98  1623.02  1639.66
                             1685.22  1738.92  1739.89  1784.69  1827.11
                             1871.35  1885.37  1903.80  1918.49  1927.12
                             1944.04  1966.47  1997.35  2006.40  2011.36
                             2047.61  2049.41  2052.72  2058.52  2116.57
                             2148.01  2158.72  2163.00  2166.65  2174.48
                             2177.21  2183.17  2192.07  2201.98  2637.82
                             4335.24  4347.33  4353.56  4355.23  4366.74
                             4371.90  4378.64  4379.06  4391.72  4396.75
                             4401.59  4406.48  4422.72  4437.44  4442.86
                             4450.54  4468.19  4476.37  4486.64  5396.35

 Zero-point correction=                           0.292165 (Hartree/Particle)
 Thermal correction to Energy=                    0.306514
 Thermal correction to Enthalpy=                  0.307459
 Thermal correction to Gibbs Free Energy=         0.248864
 Sum of electronic and zero-point Energies=           -543.377716
 Sum of electronic and thermal Energies=              -543.363366
 Sum of electronic and thermal Enthalpies=            -543.362422
 Sum of electronic and thermal Free Energies=         -543.421016

                     E (Thermal)             CV                S
                      KCal/Mol        Cal/Mol-Kelvin    Cal/Mol-Kelvin
 Total                  192.341             52.207            123.323
 Electronic               0.000              0.000              0.000
 Translational            0.889              2.981             41.337
 Rotational               0.889              2.981             31.814
 Vibrational            190.563             46.246             50.171
 Vibration     1          0.593              1.986              6.649
 Vibration     2          0.594              1.981              5.264
 Vibration     3          0.595              1.978              4.895
 Vibration     4          0.596              1.975              4.580
 Vibration     5          0.601              1.958              3.729
 Vibration     6          0.611              1.926              2.989
 Vibration     7          0.619              1.900              2.638
 Vibration     8          0.623              1.888              2.516
 Vibration     9          0.650              1.801              1.908
 Vibration    10          0.663              1.761              1.722
 Vibration    11          0.673              1.730              1.602
 Vibration    12          0.682              1.706              1.518
 Vibration    13          0.693              1.673              1.415
 Vibration    14          0.703              1.644              1.333
 Vibration    15          0.751              1.509              1.032
 Vibration    16          0.808              1.363              0.799
 Vibration    17          0.863              1.232              0.638
 Vibration    18          0.874              1.208              0.612
 Vibration    19          0.921              1.106              0.513

                           ! Non-Optimized Parameters !
 Normal termination of Gaussian 16 at Sat Feb  5 09:01:58 2022.

 ----------------------------------------------------------------------
 # M062X/def2tzvp int=(grid=ultrafine) pop=nbo7 polar prop=efg volume g
 uess=read geom=check
 ----------------------------------------------------------------------

 -------
 Ac1.xyz
 -------
 Structure from the checkpoint file:  "Ac1_clust-7.chk"
 Charge =  0 Multiplicity = 1

 SCF Done:  E(RM062X) =  -543.544441214     A.U. after   11 cycles

  Exact polarizability:     138.983      -3.519     129.128      -3.123      -1.171     105.686
 Approx polarizability:     151.928      -1.653     145.695      -4.089      -0.885     138.221

 Summary of Natural Population Analysis:

                                     Natural Population
             Natural    ---------------------------------------------
  Atom No    Charge        Core      Valence    Rydberg      Total
 --------------------------------------------------------------------
    O  1   -0.68546      2.00000     6.66343    0.02203     8.68546
    C  2    0.80098      1.99999     3.16241    0.03662     5.19902
    C  3   -0.51120      1.99999     4.49838    0.01283     6.51120
    C  4   -0.39999      1.99999     4.38734    0.01266     6.39999
    C  5   -0.40380      1.99999     4.39210    0.01170     6.40380
    C  6   -0.39442      1.99999     4.38328    0.01114     6.39442
    C  7   -0.39269      1.99999     4.38174    0.01095     6.39269
    C  8   -0.41526      1.99999     4.40346    0.01181     6.41526
    C  9   -0.39502      1.99999     4.38373    0.01130     6.39502
    C 10   -0.39093      1.99999     4.38052    0.01042     6.39093
    C 11   -0.60856      1.99999     4.59979    0.00877     6.60856
    O 12   -0.60892      2.00000     6.58259    0.02634     8.60892
    H 13    0.49325      0.00000     0.50339    0.00336     0.50675
    H 14    0.23149      0.00000     0.76697    0.00154     0.76851
    H 15    0.24155      0.00000     0.75727    0.00118     0.75845
    H 16    0.21566      0.00000     0.78246    0.00187     0.78434
    H 17    0.20540      0.00000     0.79299    0.00161     0.79460
    H 18    0.19958      0.00000     0.79881    0.00161     0.80042
    H 19    0.20735      0.00000     0.79047    0.00217     0.79265
    H 20    0.19946      0.00000     0.79890    0.00163     0.80054
    H 21    0.20231      0.00000     0.79616    0.00154     0.79769
    H 22    0.19764      0.00000     0.80083    0.00153     0.80236
    H 23    0.20093      0.00000     0.79743    0.00164     0.79907
    H 24    0.21693      0.00000     0.78112    0.00196     0.78307
    H 25    0.20179      0.00000     0.79665    0.00157     0.79821
    H 26    0.19046      0.00000     0.80751    0.00203     0.80954
    H 27    0.19676      0.00000     0.80161    0.00163     0.80324
    H 28    0.19639      0.00000     0.80203    0.00157     0.80361
    H 29    0.20018      0.00000     0.79802    0.00180     0.79982
    H 30    0.19782      0.00000     0.80084    0.00134     0.80218
    H 31    0.20795      0.00000     0.79109    0.00096     0.79205
    H 32    0.20236      0.00000     0.79647    0.00117     0.79764
 ====================================================================
 * Total *  0.00000     23.99992    71.77981    0.22027    96.00000

 1\1\GINC-NOTCH077\SP\RM062X\def2TZVP\C10H20O2\U6032257\05-Feb-2022\0\\
 # M062X/def2tzvp int=(grid=ultrafine) pop=nbo7 polar prop=efg volume g
 uess=read geom=check\\Ac1.xyz\\0,1\O,0,5.55139014,0.2220631097,-0.6696
 881925\C,0,4.8784398619,-0.9121161642,-0.9809629887\C,0,4.1883160042,-
 1.4992992723,0.2306098883\C,0,3.2153980231,-2.6243530581,-0.122255419\
 C,0,1.9695685508,-2.1224798294,-0.8596798431\C,0,1.0127680486,-3.23588
 63893,-1.3067564157\C,0,1.6339698731,-4.2800802598,-2.2521386817\C,0,2
 .3826516175,-3.7022843647,-3.4628927497\C,0,1.5184903413,-2.8307839803

 Normal termination of Gaussian 16 at Sat Feb  5 09:05:47 2022.
 Gaussian 16:  ES64L-G16RevC.01  3-Jul-2019

 --------------------------------------------------------------------
 # M062X/def2tzvp int=(grid=ultrafine) nmr=giao guess=read geom=check
 --------------------------------------------------------------------

 -------
 Ac1.xyz
 -------
 Structure from the checkpoint file:  "Ac1_clust-7.chk"
 Charge =  0 Multiplicity = 1

                         Standard orientation:
 ---------------------------------------------------------------------
 Center     Atomic      Atomic             Coordinates (Angstroms)
 Number     Number       Type             X           Y           Z
 ---------------------------------------------------------------------
      1          8           0       -3.426070   -1.993590    0.344594
      2          6           0       -2.464635   -1.153630   -0.109528
      3          6           0       -2.962445    0.273161   -0.183126
      4          6           0       -1.844907    1.283703   -0.441474
      5          6           0       -0.901452    1.444463    0.755109
      6          6           0        0.283126    2.385939    0.499346
      7          6           0        1.197282    1.971164   -0.667813
      8          6           0        1.673507    0.510813   -0.638096
      9          6           0        2.469892    0.133017    0.615838
     10          6           0        2.859798   -1.350797    0.675050
     11          6           0        3.818890   -1.791880   -0.434340
     12          8           0       -1.362105   -1.548456   -0.426086
     13          1           0       -3.031789   -2.882260    0.336457
     14          1           0       -3.503135    0.492372    0.744839
     15          1           0       -3.716483    0.300108   -0.980240
     16          1           0       -1.282919    0.958758   -1.321863
     17          1           0       -2.293311    2.253098   -0.690304
     18          1           0       -1.476073    1.818316    1.613220
     19          1           0       -0.525271    0.457183    1.042500
     20          1           0       -0.092059    3.400151    0.307791
     21          1           0        0.874395    2.454417    1.420156
     22          1           0        0.676456    2.148081   -1.617002
     23          1           0        2.069026    2.638811   -0.677619
     24          1           0        0.812691   -0.162690   -0.727564
     25          1           0        2.289637    0.335843   -1.528049
     26          1           0        3.375315    0.754360    0.677525
     27          1           0        1.878260    0.369481    1.508630
     28          1           0        3.320469   -1.558310    1.649269
     29          1           0        1.945658   -1.957526    0.630625
     30          1           0        4.732768   -1.186256   -0.427239
     31          1           0        4.112660   -2.839162   -0.310018
     32          1           0        3.364749   -1.694120   -1.424977
 ---------------------------------------------------------------------

 SCF Done:  E(RM062X) =  -543.544441214     A.U. after    1 cycles

      1  O    Isotropic =   101.6594   Anisotropy =   242.0302

      2  C    Isotropic =   -10.3467   Anisotropy =   123.3579

      3  C    Isotropic =   150.1294   Anisotropy =    35.4351

      4  C    Isotropic =   163.3570   Anisotropy =    14.6800

      5  C    Isotropic =   159.4689   Anisotropy =    25.6813

      6  C    Isotropic =   160.3584   Anisotropy =    19.2581

      7  C    Isotropic =   159.8250   Anisotropy =    19.8826

      8  C    Isotropic =   162.3165   Anisotropy =    18.4190

      9  C    Isotropic =   155.7835   Anisotropy =    18.2490

     10  C    Isotropic =   160.9743   Anisotropy =    17.2860

     11  C    Isotropic =   172.6722   Anisotropy =    22.0656

     12  O    Isotropic =  -158.5584   Anisotropy =   643.5812

     13  H    Isotropic =    25.6522   Anisotropy =    11.2443

     14  H    Isotropic =    29.6565   Anisotropy =     6.9530

     15  H    Isotropic =    29.4708   Anisotropy =     9.0791

     16  H    Isotropic =    29.9523   Anisotropy =     4.5808

     17  H    Isotropic =    30.9707   Anisotropy =     9.3584

     18  H    Isotropic =    30.9771   Anisotropy =     8.8550

     19  H    Isotropic =    30.3108   Anisotropy =     3.5768

     20  H    Isotropic =    30.6546   Anisotropy =     9.7817

     21  H    Isotropic =    30.3022   Anisotropy =     8.0945

     22  H    Isotropic =    30.2505   Anisotropy =     7.7640

     23  H    Isotropic =    30.6664   Anisotropy =     9.5967

     24  H    Isotropic =    30.0248   Anisotropy =     8.0350

     25  H    Isotropic =    30.4009   Anisotropy =     7.9473

     26  H    Isotropic =    31.1510   Anisotropy =     7.7209

     27  H    Isotropic =    30.3331   Anisotropy =     6.4054

     28  H    Isotropic =    30.4005   Anisotropy =     9.6671

     29  H    Isotropic =    30.5383   Anisotropy =     7.4263

     30  H    Isotropic =    31.3888   Anisotropy =     9.3958

     31  H    Isotropic =    30.8912   Anisotropy =    11.0052

     32  H    Isotropic =    30.7020   Anisotropy =     6.6028

 The electronic state is 1-A.
 Alpha  occ. eigenvalues --  -19.67803 -19.62535 -10.68349 -10.55728 -10.53764
 Alpha  occ. eigenvalues --  -10.52786 -10.52518 -10.52166 -10.51934 -10.51789
 Alpha  occ. eigenvalues --  -10.51424 -10.51299  -1.23928  -1.14332  -0.91816
 Alpha  occ. eigenvalues --   -0.89393  -0.86359  -0.81905  -0.77544  -0.74219
 Alpha  occ. eigenvalues --   -0.70183  -0.66819  -0.64664  -0.61911  -0.58954
 Alpha  occ. eigenvalues --   -0.58084  -0.55792  -0.54264  -0.52072  -0.51035
 Alpha  occ. eigenvalues --   -0.50498  -0.48765  -0.48072  -0.47262  -0.45417
 Alpha  occ. eigenvalues --   -0.44684  -0.43577  -0.42182  -0.41408  -0.40468
 Alpha  occ. eigenvalues --   -0.40326  -0.38687  -0.38516  -0.37773  -0.36826
 Alpha  occ. eigenvalues --   -0.35852  -0.35741  -0.35179
 Alpha virt. eigenvalues --    0.03966   0.05956   0.06991   0.07891   0.08626
 Alpha virt. eigenvalues --    0.09126   0.10746   0.11054   0.11397   0.13306
 Alpha virt. eigenvalues --    0.14049   0.14262   0.14824   0.15306   0.15584

 Mulliken charges:
               1
     1  O   -0.408267
     2  C    0.356557
     3  C   -0.321330
     4  C   -0.291111
     5  C   -0.318457
     6  C   -0.320103
     7  C   -0.316687
     8  C   -0.332608
     9  C   -0.286127
    10  C   -0.238312
    11  C   -0.444269
    12  O   -0.343807
    13  H    0.334992
    14  H    0.173551
    15  H    0.176060
    16  H    0.174358
    17  H    0.150025
    18  H    0.144887
    19  H    0.174302
    20  H    0.149238
    21  H    0.164038
    22  H    0.160695
    23  H    0.149740
    24  H    0.183782
    25  H    0.148890
    26  H    0.145059
    27  H    0.140401
    28  H    0.130009
    29  H    0.145837
    30  H    0.134482
    31  H    0.139920
    32  H    0.144254
 Sum of Mulliken charges =  -0.00000

 Dipole moment (field-independent basis, Debye):
    X=             -1.5819    Y=              0.4057    Z=              0.3485  Tot=              1.6699
 Quadrupole moment (field-independent basis, Debye-Ang):
   XX=            -75.2561   YY=            -73.8780   ZZ=            -77.7363
   XY=              0.9893   XZ=              1.1276   YZ=             -1.5012

 1\1\GINC-NOTCH077\SP\RM062X\def2TZVP\C10H20O2\U6032257\05-Feb-2022\0\\
 # M062X/def2tzvp int=(grid=ultrafine) nmr=giao guess=read geom=check\\
 Ac1.xyz\\0,1\O,0,5.55139014,0.2220631097,-0.6696881925\C,0,4.878439861
 9,-0.9121161642,-0.9809629887\C,0,4.1883160042,-1.4992992723,0.2306098
 883\C,0,3.2153980231,-2.6243530581,-0.122255419\C,0,1.9695685508,-2.12
 24798294,-0.8596798431\C,0,1.0127680486,-3.2358863893,-1.3067564157\C,
 0,1.6339698731,-4.2800802598,-2.2521386817\C,0,2.3826516175,-3.7022843
 647,-3.4628927497\C,0,1.5184903413,-2.8307839803,-4.381055025\C,0,2.30

 Normal termination of Gaussian 16 at Sat Feb  5 09:07:17 2022.
