 Gaussian 16, Revision C.01,

 ----------------------------------------------------------------------
 # B3LYP/6-31G(d,p) empiricaldispersion=GD3BJ int=(grid=ultrafine) opt
 freq=noraman
 ----------------------------------------------------------------------

 -------
 Ac1.xyz
 -------
 Symbolic Z-matrix:
 Charge =  0 Multiplicity = 1

 SCF Done:  E(RB3LYP) =  -543.664673228     A.U. after   13 cycles
 SCF Done:  E(RB3LYP) =  -543.667371375     A.U. after   12 cycles
 SCF Done:  E(RB3LYP) =  -543.666853484     A.U. after   11 cycles
 SCF Done:  E(RB3LYP) =  -543.667722441     A.U. after   11 cycles
 SCF Done:  E(RB3LYP) =  -543.667785332     A.U. after   11 cycles
 SCF Done:  E(RB3LYP) =  -543.667829609     A.U. after   11 cycles
 SCF Done:  E(RB3LYP) =  -543.667841622     A.U. after   10 cycles
 SCF Done:  E(RB3LYP) =  -543.667847016     A.U. after   10 cycles
 SCF Done:  E(RB3LYP) =  -543.667849259     A.U. after    9 cycles
 SCF Done:  E(RB3LYP) =  -543.667849692     A.U. after    7 cycles
 SCF Done:  E(RB3LYP) =  -543.667849849     A.U. after    7 cycles
 SCF Done:  E(RB3LYP) =  -543.667849873     A.U. after    7 cycles
 Optimization completed.
    -- Stationary point found.
 Normal termination of Gaussian 16 at Thu Feb  3 07:44:35 2022.

 ----------------------------------------------------------------------
 #N Geom=AllCheck Guess=TCheck SCRF=Check GenChk RB3LYP/6-31G(d,p) Freq
 ----------------------------------------------------------------------

 Structure from the checkpoint file:  "Ac1_clust-19.chk"
 -------
 Ac1.xyz
 -------
 Charge =  0 Multiplicity = 1

 SCF Done:  E(RB3LYP) =  -543.667849873     A.U. after    1 cycles

                      1                      2                      3
                      A                      A                      A
 Frequencies --     18.7832                27.0287                29.3997
 Red. masses --      4.7052                 3.5212                 6.6107
 Frc consts  --      0.0010                 0.0015                 0.0034
 IR Inten    --      0.0089                 0.5430                 1.1773

                      4                      5                      6
                      A                      A                      A
 Frequencies --     51.7442                82.9604               117.5751
 Red. masses --      3.8079                 2.8255                 3.0059
 Frc consts  --      0.0060                 0.0115                 0.0245
 IR Inten    --      0.7889                 0.6168                 0.2031

                      7                      8                      9
                      A                      A                      A
 Frequencies --    160.7291               168.5803               178.7483
 Red. masses --      2.6026                 1.6824                 2.7041
 Frc consts  --      0.0396                 0.0282                 0.0509
 IR Inten    --      0.2088                 0.0330                 0.0548

                     10                     11                     12
                      A                      A                      A
 Frequencies --    237.9404               264.6922               278.3493
 Red. masses --      2.2590                 1.6578                 1.5705
 Frc consts  --      0.0754                 0.0684                 0.0717
 IR Inten    --      0.1093                 0.1403                 0.0367

                     13                     14                     15
                      A                      A                      A
 Frequencies --    298.4109               344.1183               405.4663
 Red. masses --      2.1287                 1.9983                 2.4083
 Frc consts  --      0.1117                 0.1394                 0.2333
 IR Inten    --      0.3054                 0.3034                 0.5936

                     16                     17                     18
                      A                      A                      A
 Frequencies --    433.8740               478.2986               556.3485
 Red. masses --      2.4104                 2.4624                 2.3745
 Frc consts  --      0.2673                 0.3319                 0.4330
 IR Inten    --      3.2049                 0.2947                 2.7580

                     19                     20                     21
                      A                      A                      A
 Frequencies --    566.3721               635.2952               725.7065
 Red. masses --      3.1656                 1.3442                 1.2598
 Frc consts  --      0.5983                 0.3196                 0.3909
 IR Inten    --     40.0576                70.6595                 0.5358

                     22                     23                     24
                      A                      A                      A
 Frequencies --    733.7127               754.3658               789.2182
 Red. masses --      1.8146                 1.4903                 1.4099
 Frc consts  --      0.5755                 0.4997                 0.5174
 IR Inten    --     38.1621                25.9821                 2.3240

                     25                     26                     27
                      A                      A                      A
 Frequencies --    802.5631               832.7693               847.4632
 Red. masses --      1.9814                 2.0200                 1.9410
 Frc consts  --      0.7520                 0.8254                 0.8213
 IR Inten    --      3.8019                 0.6318                 2.0948

                     28                     29                     30
                      A                      A                      A
 Frequencies --    875.3002               901.6508               928.7918
 Red. masses --      1.9855                 1.9616                 1.9363
 Frc consts  --      0.8963                 0.9396                 0.9842
 IR Inten    --      4.2160                 2.3933                 2.1130

                     31                     32                     33
                      A                      A                      A
 Frequencies --    957.1472               990.5454              1000.4762
 Red. masses --      1.7635                 1.9090                 1.6031
 Frc consts  --      0.9519                 1.1036                 0.9454
 IR Inten    --      1.5962                12.4679                 1.0044

                     34                     35                     36
                      A                      A                      A
 Frequencies --   1043.7289              1053.4894              1078.5055
 Red. masses --      1.8381                 1.6286                 2.2212
 Frc consts  --      1.1798                 1.0649                 1.5222
 IR Inten    --     31.4366                 1.1103                11.5934

                     37                     38                     39
                      A                      A                      A
 Frequencies --   1087.8817              1107.1075              1120.8862
 Red. masses --      1.8384                 2.1114                 1.4834
 Frc consts  --      1.2819                 1.5248                 1.0981
 IR Inten    --      1.6786                 1.6823                46.0757

                     40                     41                     42
                      A                      A                      A
 Frequencies --   1143.1189              1169.6157              1186.8273
 Red. masses --      1.7871                 2.0450                 1.4532
 Frc consts  --      1.3759                 1.6483                 1.2060
 IR Inten    --      2.6539                57.5573                 3.2897

                     43                     44                     45
                      A                      A                      A
 Frequencies --   1226.9311              1244.0278              1272.0186
 Red. masses --      1.5189                 1.3867                 1.3580
 Frc consts  --      1.3472                 1.2645                 1.2946
 IR Inten    --     32.0711                69.0229                 1.5421

                     46                     47                     48
                      A                      A                      A
 Frequencies --   1297.1406              1312.5519              1321.4376
 Red. masses --      1.2952                 1.2961                 1.2383
 Frc consts  --      1.2840                 1.3156                 1.2740
 IR Inten    --      2.0374                 0.6988                 0.1587

                     49                     50                     51
                      A                      A                      A
 Frequencies --   1335.3636              1341.7056              1349.8622
 Red. masses --      1.3110                 1.1152                 1.3744
 Frc consts  --      1.3773                 1.1829                 1.4755
 IR Inten    --      6.0512                 1.0842                13.9092

                     52                     53                     54
                      A                      A                      A
 Frequencies --   1368.1339              1374.2262              1387.1991
 Red. masses --      1.3432                 1.3341                 1.3190
 Frc consts  --      1.4813                 1.4844                 1.4955
 IR Inten    --     20.8498                 8.4024                 3.5494

                     55                     56                     57
                      A                      A                      A
 Frequencies --   1396.4014              1409.8400              1419.3648
 Red. masses --      1.4544                 1.8210                 1.5252
 Frc consts  --      1.6709                 2.1325                 1.8104
 IR Inten    --      4.3028                24.9916                 0.7528

                     58                     59                     60
                      A                      A                      A
 Frequencies --   1422.5203              1429.4150              1490.5287
 Red. masses --      1.4983                 1.2798                 1.0820
 Frc consts  --      1.7864                 1.5407                 1.4163
 IR Inten    --      0.4091                 6.0533                 7.4988

                     61                     62                     63
                      A                      A                      A
 Frequencies --   1493.1496              1504.3338              1505.4297
 Red. masses --      1.0747                 1.0847                 1.1084
 Frc consts  --      1.4117                 1.4463                 1.4800
 IR Inten    --      0.4530                 2.4093                 7.1668

                     64                     65                     66
                      A                      A                      A
 Frequencies --   1507.2823              1508.5327              1511.8863
 Red. masses --      1.0851                 1.0598                 1.0852
 Frc consts  --      1.4525                 1.4210                 1.4616
 IR Inten    --      0.4470                 1.1311                 7.3097

                     67                     68                     69
                      A                      A                      A
 Frequencies --   1517.1409              1519.5429              1528.2983
 Red. masses --      1.0793                 1.0762                 1.0729
 Frc consts  --      1.4637                 1.4642                 1.4764
 IR Inten    --      1.4892                 7.0016                 1.4027

                     70                     71                     72
                      A                      A                      A
 Frequencies --   1840.3674              3015.3850              3019.3369
 Red. masses --      9.4497                 1.0615                 1.0617
 Frc consts  --     18.8572                 5.6869                 5.7026
 IR Inten    --    243.8320                10.8853                35.4535

                     73                     74                     75
                      A                      A                      A
 Frequencies --   3026.4266              3031.4135              3034.4282
 Red. masses --      1.0617                 1.0642                 1.0640
 Frc consts  --      5.7295                 5.7621                 5.7725
 IR Inten    --     14.8949                49.8698                37.2103

                     76                     77                     78
                      A                      A                      A
 Frequencies --   3038.0110              3040.9133              3045.2194
 Red. masses --      1.0508                 1.0494                 1.0643
 Frc consts  --      5.7142                 5.7173                 5.8150
 IR Inten    --     25.1810                11.9982                18.5224

                     79                     80                     81
                      A                      A                      A
 Frequencies --   3050.6101              3055.2301              3064.8317
 Red. masses --      1.1001                 1.0995                 1.0944
 Frc consts  --      6.0322                 6.0470                 6.0570
 IR Inten    --     13.3622                24.4080                22.5164

                     82                     83                     84
                      A                      A                      A
 Frequencies --   3071.1178              3076.8047              3082.8959
 Red. masses --      1.1011                 1.0645                 1.1011
 Frc consts  --      6.1187                 5.9373                 6.1656
 IR Inten    --     23.1293                16.0891                45.3341

                     85                     86                     87
                      A                      A                      A
 Frequencies --   3086.8390              3094.9021              3107.7208
 Red. masses --      1.1006                 1.1035                 1.1017
 Frc consts  --      6.1786                 6.2275                 6.2689
 IR Inten    --     73.2756                49.8323                50.9976

                     88                     89                     90
                      A                      A                      A
 Frequencies --   3114.1706              3145.5694              3751.2456
 Red. masses --      1.1019                 1.1009                 1.0641
 Frc consts  --      6.2960                 6.4182                 8.8222
 IR Inten    --     54.6382                15.8873                45.7998

 - Thermochemistry -
 -------------------
 Temperature   298.150 Kelvin.  Pressure   1.00000 Atm.
 Atom     1 has atomic number  8 and mass  15.99491

 Molecular mass:   172.14633 amu.
 Principal axes and moments of inertia in atomic units:
                           1         2         3
     Eigenvalues --  1158.208955207.620675442.75248
           X            0.99988   0.01465  -0.00512
           Y           -0.01478   0.99953  -0.02689
           Z            0.00472   0.02696   0.99963
 This molecule is an asymmetric top.
 Rotational symmetry number  1.
 Warning -- assumption of classical behavior for rotation
           may cause significant error
 Rotational temperatures (Kelvin)      0.07478     0.01663     0.01591
 Rotational constants (GHZ):           1.55822     0.34656     0.33159
 Zero-point vibrational energy     767125.0 (Joules/Mol)
                                  183.34728 (Kcal/Mol)
 Warning -- explicit consideration of  19 degrees of freedom as
           vibrations may cause significant error
 Vibrational temperatures:     27.02    38.89    42.30    74.45   119.36
          (Kelvin)            169.16   231.25   242.55   257.18   342.34
                              380.83   400.48   429.35   495.11   583.38
                              624.25   688.16   800.46   814.88   914.05
                             1044.13  1055.65  1085.36  1135.51  1154.71
                             1198.17  1219.31  1259.36  1297.27  1336.32
                             1377.12  1425.17  1439.46  1501.69  1515.74
                             1551.73  1565.22  1592.88  1612.71  1644.69
                             1682.82  1707.58  1765.28  1789.88  1830.15
                             1866.30  1888.47  1901.25  1921.29  1930.42
                             1942.15  1968.44  1977.20  1995.87  2009.11
                             2028.45  2042.15  2046.69  2056.61  2144.54
                             2148.31  2164.40  2165.98  2168.64  2170.44
                             2175.27  2182.83  2186.28  2198.88  2647.88
                             4338.47  4344.15  4354.35  4361.53  4365.87
                             4371.02  4375.20  4381.39  4389.15  4395.79
                             4409.61  4418.65  4426.84  4435.60  4441.27
                             4452.87  4471.32  4480.60  4525.77  5397.21

 Zero-point correction=                           0.292182 (Hartree/Particle)
 Thermal correction to Energy=                    0.306647
 Thermal correction to Enthalpy=                  0.307592
 Thermal correction to Gibbs Free Energy=         0.247819
 Sum of electronic and zero-point Energies=           -543.375667
 Sum of electronic and thermal Energies=              -543.361202
 Sum of electronic and thermal Enthalpies=            -543.360258
 Sum of electronic and thermal Free Energies=         -543.420031

                     E (Thermal)             CV                S
                      KCal/Mol        Cal/Mol-Kelvin    Cal/Mol-Kelvin
 Total                  192.424             52.123            125.803
 Electronic               0.000              0.000              0.000
 Translational            0.889              2.981             41.337
 Rotational               0.889              2.981             31.863
 Vibrational            190.647             46.161             52.603
 Vibration     1          0.593              1.986              6.759
 Vibration     2          0.593              1.984              6.036
 Vibration     3          0.593              1.984              5.870
 Vibration     4          0.596              1.977              4.750
 Vibration     5          0.600              1.961              3.820
 Vibration     6          0.608              1.935              3.140
 Vibration     7          0.622              1.891              2.541
 Vibration     8          0.625              1.881              2.451
 Vibration     9          0.629              1.868              2.341
 Vibration    10          0.656              1.783              1.818
 Vibration    11          0.671              1.738              1.631
 Vibration    12          0.679              1.714              1.544
 Vibration    13          0.691              1.677              1.426
 Vibration    14          0.723              1.587              1.193
 Vibration    15          0.770              1.458              0.943
 Vibration    16          0.795              1.396              0.846
 Vibration    17          0.835              1.298              0.715
 Vibration    18          0.912              1.126              0.531
 Vibration    19          0.922              1.104              0.511

                           ! Non-Optimized Parameters !
 Normal termination of Gaussian 16 at Thu Feb  3 07:46:09 2022.

 ----------------------------------------------------------------------
 # M062X/def2tzvp int=(grid=ultrafine) pop=nbo7 polar prop=efg volume g
 uess=read geom=check
 ----------------------------------------------------------------------

 -------
 Ac1.xyz
 -------
 Structure from the checkpoint file:  "Ac1_clust-19.chk"
 Charge =  0 Multiplicity = 1

 SCF Done:  E(RM062X) =  -543.542868126     A.U. after   11 cycles

  Exact polarizability:     139.531       4.067     118.172       2.213       1.003     115.128
 Approx polarizability:     142.866       2.790     146.688       4.735       2.172     146.717

 Summary of Natural Population Analysis:

                                     Natural Population
             Natural    ---------------------------------------------
  Atom No    Charge        Core      Valence    Rydberg      Total
 --------------------------------------------------------------------
    O  1   -0.69406      2.00000     6.67178    0.02229     8.69406
    C  2    0.79816      1.99999     3.16357    0.03828     5.20184
    C  3   -0.51364      1.99999     4.50052    0.01313     6.51364
    C  4   -0.37877      1.99999     4.36824    0.01054     6.37877
    C  5   -0.40378      1.99999     4.39216    0.01163     6.40378
    C  6   -0.40038      1.99999     4.38882    0.01158     6.40038
    C  7   -0.39337      1.99999     4.38189    0.01149     6.39337
    C  8   -0.40408      1.99999     4.39257    0.01152     6.40408
    C  9   -0.38728      1.99999     4.37617    0.01112     6.38728
    C 10   -0.39720      1.99999     4.38676    0.01045     6.39720
    C 11   -0.61079      1.99999     4.60177    0.00903     6.61079
    O 12   -0.59958      2.00000     6.57309    0.02649     8.59958
    H 13    0.49363      0.00000     0.50295    0.00342     0.50637
    H 14    0.22922      0.00000     0.76942    0.00135     0.77078
    H 15    0.23492      0.00000     0.76382    0.00126     0.76508
    H 16    0.21366      0.00000     0.78481    0.00153     0.78634
    H 17    0.20597      0.00000     0.79229    0.00174     0.79403
    H 18    0.19926      0.00000     0.79869    0.00205     0.80074
    H 19    0.20524      0.00000     0.79308    0.00168     0.79476
    H 20    0.19649      0.00000     0.80178    0.00173     0.80351
    H 21    0.20822      0.00000     0.78979    0.00199     0.79178
    H 22    0.19146      0.00000     0.80660    0.00195     0.80854
    H 23    0.20082      0.00000     0.79743    0.00174     0.79918
    H 24    0.19413      0.00000     0.80415    0.00172     0.80587
    H 25    0.21067      0.00000     0.78775    0.00159     0.78933
    H 26    0.19808      0.00000     0.80029    0.00163     0.80192
    H 27    0.19814      0.00000     0.80017    0.00169     0.80186
    H 28    0.19429      0.00000     0.80402    0.00169     0.80571
    H 29    0.20118      0.00000     0.79730    0.00152     0.79882
    H 30    0.20069      0.00000     0.79795    0.00135     0.79931
    H 31    0.19942      0.00000     0.79932    0.00126     0.80058
    H 32    0.20931      0.00000     0.78971    0.00098     0.79069
 ====================================================================
 * Total *  0.00000     23.99992    71.77867    0.22142    96.00000

 1\1\GINC-NOTCH075\SP\RM062X\def2TZVP\C10H20O2\U6032257\03-Feb-2022\0\\
 # M062X/def2tzvp int=(grid=ultrafine) pop=nbo7 polar prop=efg volume g
 uess=read geom=check\\Ac1.xyz\\0,1\O,0,5.8051545012,-0.6553119663,-0.3
 162126633\C,0,4.4618898803,-0.4607322217,-0.3455361829\C,0,3.746952638
 4,-1.3322298564,0.6576294827\C,0,3.7744410511,-2.8184830056,0.23770795
 43\C,0,3.2960770894,-3.0698533407,-1.1982889384\C,0,1.8768751038,-2.56
 69154474,-1.4857109891\C,0,1.3762447364,-2.9094440002,-2.8948076048\C,
 0,2.1817502156,-2.2369826787,-4.0135615544\C,0,1.5631572989,-2.3994032

 Normal termination of Gaussian 16 at Thu Feb  3 07:49:44 2022.
 Gaussian 16:  ES64L-G16RevC.01  3-Jul-2019

 --------------------------------------------------------------------
 # M062X/def2tzvp int=(grid=ultrafine) nmr=giao guess=read geom=check
 --------------------------------------------------------------------

 -------
 Ac1.xyz
 -------
 Structure from the checkpoint file:  "Ac1_clust-19.chk"
 Charge =  0 Multiplicity = 1

                         Standard orientation:
 ---------------------------------------------------------------------
 Center     Atomic      Atomic             Coordinates (Angstroms)
 Number     Number       Type             X           Y           Z
 ---------------------------------------------------------------------
      1          8           0        3.451718   -1.199992    1.139700
      2          6           0        2.967150   -0.816581   -0.069130
      3          6           0        3.169305    0.658930   -0.311999
      4          6           0        2.248041    1.512242    0.587540
      5          6           0        0.768983    1.108794    0.526532
      6          6           0        0.161637    1.155658   -0.880105
      7          6           0       -1.339899    0.842875   -0.912762
      8          6           0       -1.679850   -0.585750   -0.469910
      9          6           0       -3.146544   -0.976014   -0.700855
     10          6           0       -4.177171   -0.096270    0.023734
     11          6           0       -4.010489   -0.070758    1.545505
     12          8           0        2.408733   -1.591346   -0.815786
     13          1           0        3.241366   -2.145428    1.223249
     14          1           0        2.966120    0.842024   -1.368042
     15          1           0        4.214237    0.914259   -0.109633
     16          1           0        2.601457    1.439567    1.621406
     17          1           0        2.361431    2.560147    0.284881
     18          1           0        0.659018    0.099387    0.940641
     19          1           0        0.198168    1.771177    1.190599
     20          1           0        0.334722    2.152116   -1.309351
     21          1           0        0.682700    0.438715   -1.525126
     22          1           0       -1.874114    1.567486   -0.283881
     23          1           0       -1.712203    0.994143   -1.934884
     24          1           0       -1.431861   -0.714647    0.590078
     25          1           0       -1.034276   -1.287231   -1.014029
     26          1           0       -3.355914   -0.950484   -1.778638
     27          1           0       -3.288221   -2.018597   -0.386015
     28          1           0       -4.127462    0.928355   -0.364930
     29          1           0       -5.181568   -0.462025   -0.223154
     30          1           0       -4.035425   -1.084543    1.961598
     31          1           0       -3.058629    0.382491    1.840469
     32          1           0       -4.810131    0.505036    2.022149
 ---------------------------------------------------------------------

 SCF Done:  E(RM062X) =  -543.542868126     A.U. after    1 cycles

      1  O    Isotropic =   103.7918   Anisotropy =   235.2781

      2  C    Isotropic =    -9.1905   Anisotropy =   130.6910

      3  C    Isotropic =   150.0635   Anisotropy =    38.9838

      4  C    Isotropic =   158.0442   Anisotropy =    11.4856

      5  C    Isotropic =   157.5467   Anisotropy =    20.1357

      6  C    Isotropic =   156.4753   Anisotropy =    21.4929

      7  C    Isotropic =   156.2066   Anisotropy =    22.4925

      8  C    Isotropic =   160.4140   Anisotropy =    22.6712

      9  C    Isotropic =   153.6892   Anisotropy =    12.0963

     10  C    Isotropic =   165.3894   Anisotropy =    13.1435

     11  C    Isotropic =   174.5562   Anisotropy =    18.9251

     12  O    Isotropic =  -177.8061   Anisotropy =   627.3505

     13  H    Isotropic =    25.8117   Anisotropy =    10.8026

     14  H    Isotropic =    29.5334   Anisotropy =     4.9643

     15  H    Isotropic =    29.5151   Anisotropy =     8.2574

     16  H    Isotropic =    29.9171   Anisotropy =     9.2762

     17  H    Isotropic =    30.4659   Anisotropy =     8.7323

     18  H    Isotropic =    30.4558   Anisotropy =     4.6877

     19  H    Isotropic =    30.8178   Anisotropy =     7.5131

     20  H    Isotropic =    30.8102   Anisotropy =     8.0769

     21  H    Isotropic =    30.0726   Anisotropy =     6.1474

     22  H    Isotropic =    30.6158   Anisotropy =     5.8179

     23  H    Isotropic =    30.8072   Anisotropy =     7.8834

     24  H    Isotropic =    30.3734   Anisotropy =     4.9430

     25  H    Isotropic =    30.8571   Anisotropy =     7.9261

     26  H    Isotropic =    30.4769   Anisotropy =     8.5514

     27  H    Isotropic =    30.5318   Anisotropy =     9.1843

     28  H    Isotropic =    30.5219   Anisotropy =     6.4130

     29  H    Isotropic =    30.5775   Anisotropy =    10.5610

     30  H    Isotropic =    31.4523   Anisotropy =     9.4039

     31  H    Isotropic =    30.9190   Anisotropy =     6.7893

     32  H    Isotropic =    30.9627   Anisotropy =    11.0450

 The electronic state is 1-A.
 Alpha  occ. eigenvalues --  -19.67636 -19.62207 -10.67972 -10.55345 -10.54594
 Alpha  occ. eigenvalues --  -10.53255 -10.52599 -10.52496 -10.52472 -10.52296
 Alpha  occ. eigenvalues --  -10.52077 -10.51914  -1.23620  -1.14035  -0.92087
 Alpha  occ. eigenvalues --   -0.89926  -0.86482  -0.82096  -0.78182  -0.73288
 Alpha  occ. eigenvalues --   -0.70808  -0.68209  -0.65176  -0.62315  -0.58381
 Alpha  occ. eigenvalues --   -0.57398  -0.54901  -0.53797  -0.53395  -0.51597
 Alpha  occ. eigenvalues --   -0.50781  -0.49194  -0.48145  -0.46750  -0.46519
 Alpha  occ. eigenvalues --   -0.44755  -0.44228  -0.42632  -0.41630  -0.41228
 Alpha  occ. eigenvalues --   -0.40189  -0.39295  -0.38837  -0.37933  -0.36647
 Alpha  occ. eigenvalues --   -0.36232  -0.36035  -0.35484
 Alpha virt. eigenvalues --    0.03948   0.05660   0.06733   0.08087   0.08341
 Alpha virt. eigenvalues --    0.09747   0.10239   0.10912   0.11477   0.12824
 Alpha virt. eigenvalues --    0.12992   0.13825   0.14070   0.14403   0.15524

 Mulliken charges:
               1
     1  O   -0.406798
     2  C    0.336899
     3  C   -0.332303
     4  C   -0.282246
     5  C   -0.325662
     6  C   -0.300326
     7  C   -0.298336
     8  C   -0.334853
     9  C   -0.278265
    10  C   -0.270526
    11  C   -0.437975
    12  O   -0.333178
    13  H    0.335494
    14  H    0.180484
    15  H    0.169122
    16  H    0.164324
    17  H    0.153655
    18  H    0.167956
    19  H    0.150626
    20  H    0.145502
    21  H    0.175114
    22  H    0.151195
    23  H    0.148393
    24  H    0.157088
    25  H    0.167799
    26  H    0.143704
    27  H    0.147939
    28  H    0.145803
    29  H    0.137146
    30  H    0.141477
    31  H    0.137837
    32  H    0.142908
 Sum of Mulliken charges =  -0.00000

 Dipole moment (field-independent basis, Debye):
    X=              0.4982    Y=              1.0838    Z=              1.0394  Tot=              1.5822
 Quadrupole moment (field-independent basis, Debye-Ang):
   XX=            -74.9183   YY=            -75.4924   ZZ=            -79.2252
   XY=              1.8543   XZ=              1.8926   YZ=             -4.4945

 1\1\GINC-NOTCH075\SP\RM062X\def2TZVP\C10H20O2\U6032257\03-Feb-2022\0\\
 # M062X/def2tzvp int=(grid=ultrafine) nmr=giao guess=read geom=check\\
 Ac1.xyz\\0,1\O,0,5.8051545012,-0.6553119663,-0.3162126633\C,0,4.461889
 8803,-0.4607322217,-0.3455361829\C,0,3.7469526384,-1.3322298564,0.6576
 294827\C,0,3.7744410511,-2.8184830056,0.2377079543\C,0,3.2960770894,-3
 .0698533407,-1.1982889384\C,0,1.8768751038,-2.5669154474,-1.4857109891
 \C,0,1.3762447364,-2.9094440002,-2.8948076048\C,0,2.1817502156,-2.2369
 826787,-4.0135615544\C,0,1.5631572989,-2.3994032122,-5.409195673\C,0,1

 Normal termination of Gaussian 16 at Thu Feb  3 07:51:13 2022.
