 Gaussian 16, Revision C.01,

 ----------------------------------------------------------------------
 # B3LYP/6-31G(d,p) empiricaldispersion=GD3BJ int=(grid=ultrafine) opt
 freq=noraman
 ----------------------------------------------------------------------

 -------
 Ac1.xyz
 -------
 Symbolic Z-matrix:
 Charge =  0 Multiplicity = 1

 SCF Done:  E(RB3LYP) =  -543.660762952     A.U. after   13 cycles
 SCF Done:  E(RB3LYP) =  -543.663172837     A.U. after   12 cycles
 SCF Done:  E(RB3LYP) =  -543.663326651     A.U. after   11 cycles
 SCF Done:  E(RB3LYP) =  -543.663793725     A.U. after   12 cycles
 SCF Done:  E(RB3LYP) =  -543.663973237     A.U. after   11 cycles
 SCF Done:  E(RB3LYP) =  -543.663997681     A.U. after    9 cycles
 SCF Done:  E(RB3LYP) =  -543.663998640     A.U. after   11 cycles
 SCF Done:  E(RB3LYP) =  -543.664024892     A.U. after   10 cycles
 SCF Done:  E(RB3LYP) =  -543.664029646     A.U. after    9 cycles
 SCF Done:  E(RB3LYP) =  -543.664031366     A.U. after    8 cycles
 SCF Done:  E(RB3LYP) =  -543.664031580     A.U. after    7 cycles
 Optimization completed.
    -- Stationary point found.
 Normal termination of Gaussian 16 at Thu Feb  3 06:47:50 2022.

 ----------------------------------------------------------------------
 #N Geom=AllCheck Guess=TCheck SCRF=Check GenChk RB3LYP/6-31G(d,p) Freq
 ----------------------------------------------------------------------

 Structure from the checkpoint file:  "Ac1_clust-13.chk"
 -------
 Ac1.xyz
 -------
 Charge =  0 Multiplicity = 1

 SCF Done:  E(RB3LYP) =  -543.664031580     A.U. after    1 cycles

                      1                      2                      3
                      A                      A                      A
 Frequencies --     18.5205                35.3963                47.3382
 Red. masses --      3.5049                 6.6189                 3.9051
 Frc consts  --      0.0007                 0.0049                 0.0052
 IR Inten    --      0.0451                 0.9498                 0.0435

                      4                      5                      6
                      A                      A                      A
 Frequencies --     61.5414                94.5716               103.2809
 Red. masses --      4.0778                 2.1827                 2.3111
 Frc consts  --      0.0091                 0.0115                 0.0145
 IR Inten    --      0.3978                 0.0790                 0.2482

                      7                      8                      9
                      A                      A                      A
 Frequencies --    112.1383               161.5151               205.9010
 Red. masses --      2.5807                 2.2397                 2.5339
 Frc consts  --      0.0191                 0.0344                 0.0633
 IR Inten    --      0.2101                 0.2588                 0.5972

                     10                     11                     12
                      A                      A                      A
 Frequencies --    215.7800               272.4917               303.5071
 Red. masses --      2.5868                 1.5047                 1.8436
 Frc consts  --      0.0710                 0.0658                 0.1001
 IR Inten    --      1.0243                 0.2208                 0.5732

                     13                     14                     15
                      A                      A                      A
 Frequencies --    305.7336               336.8042               388.4997
 Red. masses --      1.7074                 2.7649                 2.4150
 Frc consts  --      0.0940                 0.1848                 0.2148
 IR Inten    --      0.3603                 0.3233                 1.0600

                     16                     17                     18
                      A                      A                      A
 Frequencies --    437.6771               473.4657               502.7321
 Red. masses --      2.3337                 2.1350                 2.4503
 Frc consts  --      0.2634                 0.2820                 0.3649
 IR Inten    --      3.7886                 3.1644                 6.9154

                     19                     20                     21
                      A                      A                      A
 Frequencies --    531.5949               629.2205               689.4385
 Red. masses --      1.8103                 2.8747                 1.4201
 Frc consts  --      0.3014                 0.6706                 0.3977
 IR Inten    --     26.0676                22.1993               100.5017

                     22                     23                     24
                      A                      A                      A
 Frequencies --    727.6942               758.2238               779.0296
 Red. masses --      1.1527                 1.5118                 1.3736
 Frc consts  --      0.3596                 0.5121                 0.4912
 IR Inten    --      3.5805                15.0694                 2.6506

                     25                     26                     27
                      A                      A                      A
 Frequencies --    806.4632               826.9738               854.6573
 Red. masses --      1.9848                 2.3113                 2.1128
 Frc consts  --      0.7606                 0.9313                 0.9093
 IR Inten    --      3.6891                 6.4458                 1.1823

                     28                     29                     30
                      A                      A                      A
 Frequencies --    866.3112               896.9118               949.4331
 Red. masses --      1.7943                 1.5524                 2.1490
 Frc consts  --      0.7934                 0.7358                 1.1413
 IR Inten    --      2.1090                 1.2064                 1.0293

                     31                     32                     33
                      A                      A                      A
 Frequencies --    969.3810               994.0540              1021.3200
 Red. masses --      2.1170                 2.2064                 1.5804
 Frc consts  --      1.1721                 1.2845                 0.9713
 IR Inten    --      1.3613                 3.2755                 2.4401

                     34                     35                     36
                      A                      A                      A
 Frequencies --   1038.6303              1065.0462              1071.1020
 Red. masses --      1.8868                 1.9854                 1.7671
 Frc consts  --      1.1992                 1.3269                 1.1945
 IR Inten    --      6.1998                12.6660                 0.2206

                     37                     38                     39
                      A                      A                      A
 Frequencies --   1102.5577              1109.5289              1128.5803
 Red. masses --      2.1487                 2.0472                 2.0019
 Frc consts  --      1.5389                 1.4849                 1.5023
 IR Inten    --      2.2956                 3.6610                52.0147

                     40                     41                     42
                      A                      A                      A
 Frequencies --   1140.8326              1171.0918              1203.9501
 Red. masses --      1.6329                 2.0815                 1.5660
 Frc consts  --      1.2521                 1.6819                 1.3374
 IR Inten    --     33.2874                92.4096                54.1966

                     43                     44                     45
                      A                      A                      A
 Frequencies --   1212.7831              1236.7137              1266.8141
 Red. masses --      1.3323                 1.3387                 1.2870
 Frc consts  --      1.1546                 1.2064                 1.2169
 IR Inten    --      0.6682                 6.4014                 5.5756

                     46                     47                     48
                      A                      A                      A
 Frequencies --   1300.7215              1309.7596              1322.6121
 Red. masses --      1.2786                 1.2787                 1.1900
 Frc consts  --      1.2745                 1.2924                 1.2265
 IR Inten    --      3.0635                 1.8518                 0.9727

                     49                     50                     51
                      A                      A                      A
 Frequencies --   1323.9260              1332.2992              1347.3565
 Red. masses --      1.3897                 1.1670                 1.0761
 Frc consts  --      1.4352                 1.2205                 1.1510
 IR Inten    --      4.7510                 5.0693                 1.3202

                     52                     53                     54
                      A                      A                      A
 Frequencies --   1377.6439              1388.4682              1393.1516
 Red. masses --      1.3241                 1.3698                 1.4440
 Frc consts  --      1.4806                 1.5559                 1.6513
 IR Inten    --      0.3310                17.3764                 1.1091

                     55                     56                     57
                      A                      A                      A
 Frequencies --   1396.0952              1402.5048              1414.9790
 Red. masses --      1.4781                 1.4295                 1.5507
 Frc consts  --      1.6974                 1.6566                 1.8293
 IR Inten    --      3.7148                 3.7630                 2.6683

                     58                     59                     60
                      A                      A                      A
 Frequencies --   1427.7145              1430.0385              1478.6752
 Red. masses --      1.8889                 1.2923                 1.1002
 Frc consts  --      2.2685                 1.5571                 1.4173
 IR Inten    --     32.0413                 4.2692                11.7821

                     61                     62                     63
                      A                      A                      A
 Frequencies --   1493.9775              1498.3888              1501.6517
 Red. masses --      1.0944                 1.0778                 1.0769
 Frc consts  --      1.4391                 1.4257                 1.4307
 IR Inten    --      8.1279                 1.0394                 0.3393

                     64                     65                     66
                      A                      A                      A
 Frequencies --   1505.9148              1506.8331              1513.2668
 Red. masses --      1.0749                 1.0752                 1.0855
 Frc consts  --      1.4363                 1.4383                 1.4645
 IR Inten    --      5.1394                 0.2362                 6.1991

                     67                     68                     69
                      A                      A                      A
 Frequencies --   1518.1530              1522.0280              1529.3041
 Red. masses --      1.0578                 1.0822                 1.0743
 Frc consts  --      1.4364                 1.4770                 1.4803
 IR Inten    --      9.6963                 6.3936                 1.5235

                     70                     71                     72
                      A                      A                      A
 Frequencies --   1842.8561              3012.0052              3016.8019
 Red. masses --      9.6021                 1.0621                 1.0621
 Frc consts  --     19.2133                 5.6774                 5.6950
 IR Inten    --    216.0767                 3.3956                39.8596

                     73                     74                     75
                      A                      A                      A
 Frequencies --   3019.8455              3023.1858              3038.5992
 Red. masses --      1.0644                 1.0638                 1.0696
 Frc consts  --      5.7189                 5.7283                 5.8188
 IR Inten    --     14.7499                26.0615                 4.8635

                     76                     77                     78
                      A                      A                      A
 Frequencies --   3040.4047              3041.5245              3048.4325
 Red. masses --      1.0377                 1.0706                 1.1008
 Frc consts  --      5.6518                 5.8354                 6.0270
 IR Inten    --     19.9348                22.5577                30.1040

                     79                     80                     81
                      A                      A                      A
 Frequencies --   3050.3537              3056.2673              3056.6244
 Red. masses --      1.0696                 1.0831                 1.0670
 Frc consts  --      5.8637                 5.9609                 5.8733
 IR Inten    --     24.9300                31.7082                11.8013

                     82                     83                     84
                      A                      A                      A
 Frequencies --   3059.9605              3067.2677              3084.9119
 Red. masses --      1.0947                 1.0987                 1.0985
 Frc consts  --      6.0394                 6.0903                 6.1594
 IR Inten    --     32.9746                75.5847                32.2687

                     85                     86                     87
                      A                      A                      A
 Frequencies --   3094.8574              3097.3599              3107.5819
 Red. masses --      1.1011                 1.1036                 1.1019
 Frc consts  --      6.2137                 6.2380                 6.2697
 IR Inten    --     29.2634                73.6920                40.9430

                     88                     89                     90
                      A                      A                      A
 Frequencies --   3116.8304              3118.6228              3747.6241
 Red. masses --      1.0937                 1.1010                 1.0640
 Frc consts  --      6.2600                 6.3093                 8.8045
 IR Inten    --     22.4346                47.9853                44.9019

 - Thermochemistry -
 -------------------
 Temperature   298.150 Kelvin.  Pressure   1.00000 Atm.
 Atom     1 has atomic number  8 and mass  15.99491

 Molecular mass:   172.14633 amu.
 Principal axes and moments of inertia in atomic units:
                           1         2         3
     Eigenvalues --  1473.219254283.965214844.54835
           X            0.99967  -0.02379   0.00920
           Y            0.02379   0.99972   0.00007
           Z           -0.00920   0.00015   0.99996
 This molecule is an asymmetric top.
 Rotational symmetry number  1.
 Warning -- assumption of classical behavior for rotation
           may cause significant error
 Rotational temperatures (Kelvin)      0.05879     0.02022     0.01788
 Rotational constants (GHZ):           1.22503     0.42128     0.37253
 Zero-point vibrational energy     766223.8 (Joules/Mol)
                                  183.13188 (Kcal/Mol)
 Warning -- explicit consideration of  19 degrees of freedom as
           vibrations may cause significant error
 Vibrational temperatures:     26.65    50.93    68.11    88.54   136.07
          (Kelvin)            148.60   161.34   232.38   296.25   310.46
                              392.05   436.68   439.88   484.59   558.96
                              629.72   681.21   723.32   764.85   905.31
                              991.95  1046.99  1090.91  1120.85  1160.32
                             1189.83  1229.66  1246.43  1290.46  1366.02
                             1394.72  1430.22  1469.45  1494.36  1532.36
                             1541.08  1586.33  1596.36  1623.78  1641.40
                             1684.94  1732.22  1744.92  1779.36  1822.66
                             1871.45  1884.45  1902.94  1904.83  1916.88
                             1938.55  1982.12  1997.70  2004.43  2008.67
                             2017.89  2035.84  2054.16  2057.51  2127.48
                             2149.50  2155.85  2160.54  2166.68  2168.00
                             2177.25  2184.28  2189.86  2200.33  2651.46
                             4333.60  4340.51  4344.88  4349.69  4371.87
                             4374.46  4376.08  4386.01  4388.78  4397.29
                             4397.80  4402.60  4413.11  4438.50  4452.81
                             4456.41  4471.12  4484.42  4487.00  5392.00

 Zero-point correction=                           0.291839 (Hartree/Particle)
 Thermal correction to Energy=                    0.306365
 Thermal correction to Enthalpy=                  0.307309
 Thermal correction to Gibbs Free Energy=         0.248054
 Sum of electronic and zero-point Energies=           -543.372192
 Sum of electronic and thermal Energies=              -543.357666
 Sum of electronic and thermal Enthalpies=            -543.356722
 Sum of electronic and thermal Free Energies=         -543.415977

                     E (Thermal)             CV                S
                      KCal/Mol        Cal/Mol-Kelvin    Cal/Mol-Kelvin
 Total                  192.247             52.381            124.713
 Electronic               0.000              0.000              0.000
 Translational            0.889              2.981             41.337
 Rotational               0.889              2.981             31.792
 Vibrational            190.470             46.420             51.584
 Vibration     1          0.593              1.986              6.787
 Vibration     2          0.594              1.982              5.501
 Vibration     3          0.595              1.979              4.926
 Vibration     4          0.597              1.973              4.407
 Vibration     5          0.603              1.953              3.563
 Vibration     6          0.605              1.947              3.391
 Vibration     7          0.607              1.939              3.232
 Vibration     8          0.622              1.890              2.532
 Vibration     9          0.640              1.831              2.080
 Vibration    10          0.645              1.817              1.994
 Vibration    11          0.675              1.724              1.580
 Vibration    12          0.695              1.667              1.397
 Vibration    13          0.696              1.663              1.385
 Vibration    14          0.718              1.602              1.227
 Vibration    15          0.757              1.495              1.006
 Vibration    16          0.798              1.388              0.834
 Vibration    17          0.830              1.309              0.728
 Vibration    18          0.858              1.244              0.651
 Vibration    19          0.887              1.180              0.584

                           ! Non-Optimized Parameters !
 Normal termination of Gaussian 16 at Thu Feb  3 06:49:24 2022.

 ----------------------------------------------------------------------
 # M062X/def2tzvp int=(grid=ultrafine) pop=nbo7 polar prop=efg volume g
 uess=read geom=check
 ----------------------------------------------------------------------

 -------
 Ac1.xyz
 -------
 Structure from the checkpoint file:  "Ac1_clust-13.chk"
 Charge =  0 Multiplicity = 1

 SCF Done:  E(RM062X) =  -543.538203802     A.U. after   11 cycles

  Exact polarizability:     134.614      -6.616     120.705      -1.728      -0.104     116.490
 Approx polarizability:     140.945      -2.275     144.820      -3.292      -0.460     150.239

 Summary of Natural Population Analysis:

                                     Natural Population
             Natural    ---------------------------------------------
  Atom No    Charge        Core      Valence    Rydberg      Total
 --------------------------------------------------------------------
    O  1   -0.69009      2.00000     6.66804    0.02205     8.69009
    C  2    0.79790      1.99999     3.16437    0.03774     5.20210
    C  3   -0.52050      1.99999     4.50740    0.01310     6.52050
    C  4   -0.38724      1.99999     4.37502    0.01222     6.38724
    C  5   -0.40198      1.99999     4.39100    0.01098     6.40198
    C  6   -0.40222      1.99999     4.39088    0.01135     6.40222
    C  7   -0.39635      1.99999     4.38509    0.01127     6.39635
    C  8   -0.39945      1.99999     4.38783    0.01162     6.39945
    C  9   -0.39267      1.99999     4.38183    0.01085     6.39267
    C 10   -0.38968      1.99999     4.37919    0.01049     6.38968
    C 11   -0.61029      1.99999     4.60146    0.00883     6.61029
    O 12   -0.60063      2.00000     6.57407    0.02656     8.60063
    H 13    0.49317      0.00000     0.50342    0.00342     0.50683
    H 14    0.24335      0.00000     0.75543    0.00122     0.75665
    H 15    0.22917      0.00000     0.76933    0.00150     0.77083
    H 16    0.20213      0.00000     0.79630    0.00157     0.79787
    H 17    0.21977      0.00000     0.77865    0.00157     0.78023
    H 18    0.20929      0.00000     0.78938    0.00132     0.79071
    H 19    0.21174      0.00000     0.78641    0.00185     0.78826
    H 20    0.19090      0.00000     0.80701    0.00209     0.80910
    H 21    0.20391      0.00000     0.79451    0.00158     0.79609
    H 22    0.20074      0.00000     0.79738    0.00187     0.79926
    H 23    0.19378      0.00000     0.80410    0.00211     0.80622
    H 24    0.19417      0.00000     0.80378    0.00205     0.80583
    H 25    0.20015      0.00000     0.79823    0.00162     0.79985
    H 26    0.19392      0.00000     0.80419    0.00189     0.80608
    H 27    0.20526      0.00000     0.79340    0.00134     0.79474
    H 28    0.19918      0.00000     0.79926    0.00156     0.80082
    H 29    0.19225      0.00000     0.80593    0.00182     0.80775
    H 30    0.20061      0.00000     0.79802    0.00137     0.79939
    H 31    0.20984      0.00000     0.78914    0.00102     0.79016
    H 32    0.19986      0.00000     0.79895    0.00118     0.80014
 ====================================================================
 * Total *  0.00000     23.99992    71.77903    0.22105    96.00000

 1\1\GINC-NOTCH075\SP\RM062X\def2TZVP\C10H20O2\U6032257\03-Feb-2022\0\\
 # M062X/def2tzvp int=(grid=ultrafine) pop=nbo7 polar prop=efg volume g
 uess=read geom=check\\Ac1.xyz\\0,1\O,0,5.6979762068,-1.3814644529,-1.4
 111471803\C,0,4.6856565533,-0.8990342637,-0.6462859392\C,0,4.093005183
 5,-1.9692851872,0.2408431092\C,0,2.6578363301,-1.6578144806,0.67484787
 25\C,0,1.6314409922,-1.5559818106,-0.4644348268\C,0,1.5148331482,-2.80
 55255854,-1.3602313416\C,0,2.3944635365,-2.7761969886,-2.6169451855\C,
 0,2.2720451288,-4.0520818458,-3.4585604414\C,0,3.1113663923,-4.0534134

 Normal termination of Gaussian 16 at Thu Feb  3 06:53:04 2022.
 Gaussian 16:  ES64L-G16RevC.01  3-Jul-2019

 --------------------------------------------------------------------
 # M062X/def2tzvp int=(grid=ultrafine) nmr=giao guess=read geom=check
 --------------------------------------------------------------------

 -------
 Ac1.xyz
 -------
 Structure from the checkpoint file:  "Ac1_clust-13.chk"
 Charge =  0 Multiplicity = 1

                         Standard orientation:
 ---------------------------------------------------------------------
 Center     Atomic      Atomic             Coordinates (Angstroms)
 Number     Number       Type             X           Y           Z
 ---------------------------------------------------------------------
      1          8           0       -1.788191   -2.209718   -0.668362
      2          6           0       -2.376539   -1.206565    0.031690
      3          6           0       -2.602795    0.017970   -0.824461
      4          6           0       -2.720048    1.306176   -0.004790
      5          6           0       -1.472362    1.687099    0.807613
      6          6           0       -0.177119    1.852709   -0.012342
      7          6           0        0.690988    0.590647   -0.099105
      8          6           0        1.949612    0.791911   -0.951481
      9          6           0        2.872505   -0.440111   -1.038068
     10          6           0        3.990727   -0.498790    0.014106
     11          6           0        3.520606   -0.547029    1.470320
     12          8           0       -2.683882   -1.326353    1.197509
     13          1           0       -1.704407   -2.954287   -0.048539
     14          1           0       -3.532837   -0.158700   -1.381109
     15          1           0       -1.811481    0.077011   -1.576085
     16          1           0       -2.962466    2.122055   -0.696609
     17          1           0       -3.568513    1.205067    0.679594
     18          1           0       -1.698271    2.627611    1.323097
     19          1           0       -1.316522    0.941073    1.595169
     20          1           0       -0.421448    2.203585   -1.025598
     21          1           0        0.432823    2.648039    0.434449
     22          1           0        0.963308    0.283703    0.916843
     23          1           0        0.122144   -0.247194   -0.518213
     24          1           0        2.519964    1.650833   -0.569898
     25          1           0        1.629297    1.074979   -1.962617
     26          1           0        2.263148   -1.352503   -0.974696
     27          1           0        3.345861   -0.464491   -2.027023
     28          1           0        4.611299   -1.380759   -0.189652
     29          1           0        4.647827    0.370881   -0.121861
     30          1           0        2.828635   -1.380247    1.637114
     31          1           0        4.368234   -0.676369    2.151136
     32          1           0        3.006530    0.374176    1.760428
 ---------------------------------------------------------------------

 SCF Done:  E(RM062X) =  -543.538203802     A.U. after    1 cycles

      1  O    Isotropic =    97.7571   Anisotropy =   241.7240

      2  C    Isotropic =    -8.7979   Anisotropy =   125.9276

      3  C    Isotropic =   152.1215   Anisotropy =    35.4615

      4  C    Isotropic =   158.2280   Anisotropy =    16.6248

      5  C    Isotropic =   159.8257   Anisotropy =    22.7199

      6  C    Isotropic =   153.6913   Anisotropy =    29.9497

      7  C    Isotropic =   146.9694   Anisotropy =    46.6260

      8  C    Isotropic =   152.1975   Anisotropy =    31.3196

      9  C    Isotropic =   154.1463   Anisotropy =    13.5092

     10  C    Isotropic =   158.2465   Anisotropy =    20.1331

     11  C    Isotropic =   170.6467   Anisotropy =    15.5665

     12  O    Isotropic =  -166.1159   Anisotropy =   664.1646

     13  H    Isotropic =    25.6678   Anisotropy =    11.0329

     14  H    Isotropic =    29.6714   Anisotropy =     8.8486

     15  H    Isotropic =    29.3702   Anisotropy =     3.5468

     16  H    Isotropic =    30.7029   Anisotropy =     9.3621

     17  H    Isotropic =    29.8424   Anisotropy =     9.7644

     18  H    Isotropic =    30.3527   Anisotropy =     9.9424

     19  H    Isotropic =    30.5062   Anisotropy =     4.9301

     20  H    Isotropic =    31.0927   Anisotropy =     4.5022

     21  H    Isotropic =    30.4406   Anisotropy =     7.2905

     22  H    Isotropic =    30.5213   Anisotropy =     7.7595

     23  H    Isotropic =    30.6247   Anisotropy =     9.1095

     24  H    Isotropic =    30.9807   Anisotropy =     4.8112

     25  H    Isotropic =    30.3899   Anisotropy =     6.5304

     26  H    Isotropic =    30.9424   Anisotropy =     5.7142

     27  H    Isotropic =    30.1489   Anisotropy =     9.1721

     28  H    Isotropic =    30.3865   Anisotropy =    10.2217

     29  H    Isotropic =    30.6652   Anisotropy =     8.6399

     30  H    Isotropic =    31.2993   Anisotropy =     7.2338

     31  H    Isotropic =    30.8615   Anisotropy =    11.0704

     32  H    Isotropic =    30.8647   Anisotropy =     5.8263

 The electronic state is 1-A.
 Alpha  occ. eigenvalues --  -19.67650 -19.62225 -10.68031 -10.55440 -10.53828
 Alpha  occ. eigenvalues --  -10.52900 -10.52812 -10.52800 -10.52719 -10.52646
 Alpha  occ. eigenvalues --  -10.52587 -10.52065  -1.23650  -1.14107  -0.91842
 Alpha  occ. eigenvalues --   -0.89899  -0.86507  -0.82610  -0.78546  -0.74063
 Alpha  occ. eigenvalues --   -0.70019  -0.66938  -0.64692  -0.63788  -0.58706
 Alpha  occ. eigenvalues --   -0.57272  -0.56741  -0.54238  -0.52123  -0.51964
 Alpha  occ. eigenvalues --   -0.50408  -0.49369  -0.47664  -0.47184  -0.46322
 Alpha  occ. eigenvalues --   -0.44498  -0.43818  -0.43267  -0.41453  -0.40829
 Alpha  occ. eigenvalues --   -0.40284  -0.39892  -0.38715  -0.37911  -0.37302
 Alpha  occ. eigenvalues --   -0.36512  -0.35895  -0.35491
 Alpha virt. eigenvalues --    0.03949   0.05492   0.06561   0.07468   0.08314
 Alpha virt. eigenvalues --    0.09381   0.10208   0.11208   0.11661   0.12902
 Alpha virt. eigenvalues --    0.13293   0.13654   0.14302   0.14721   0.15135

 Mulliken charges:
               1
     1  O   -0.410179
     2  C    0.333490
     3  C   -0.350121
     4  C   -0.283566
     5  C   -0.298696
     6  C   -0.287997
     7  C   -0.359923
     8  C   -0.284843
     9  C   -0.265871
    10  C   -0.248216
    11  C   -0.461531
    12  O   -0.327549
    13  H    0.335724
    14  H    0.174232
    15  H    0.187565
    16  H    0.153923
    17  H    0.162615
    18  H    0.144323
    19  H    0.182745
    20  H    0.155609
    21  H    0.147040
    22  H    0.162555
    23  H    0.154183
    24  H    0.151752
    25  H    0.142325
    26  H    0.145888
    27  H    0.138522
    28  H    0.132925
    29  H    0.136931
    30  H    0.147564
    31  H    0.146264
    32  H    0.142317
 Sum of Mulliken charges =  -0.00000

 Dipole moment (field-independent basis, Debye):
    X=              0.4918    Y=              0.2494    Z=             -1.4210  Tot=              1.5242
 Quadrupole moment (field-independent basis, Debye-Ang):
   XX=            -78.4837   YY=            -73.0842   ZZ=            -81.2906
   XY=             -2.1101   XZ=              5.5756   YZ=              0.4912

 1\1\GINC-NOTCH075\SP\RM062X\def2TZVP\C10H20O2\U6032257\03-Feb-2022\0\\
 # M062X/def2tzvp int=(grid=ultrafine) nmr=giao guess=read geom=check\\
 Ac1.xyz\\0,1\O,0,5.6979762068,-1.3814644529,-1.4111471803\C,0,4.685656
 5533,-0.8990342637,-0.6462859392\C,0,4.0930051835,-1.9692851872,0.2408
 431092\C,0,2.6578363301,-1.6578144806,0.6748478725\C,0,1.6314409922,-1
 .5559818106,-0.4644348268\C,0,1.5148331482,-2.8055255854,-1.3602313416
 \C,0,2.3944635365,-2.7761969886,-2.6169451855\C,0,2.2720451288,-4.0520
 818458,-3.4585604414\C,0,3.1113663923,-4.0534134229,-4.7518682659\C,0,

 Normal termination of Gaussian 16 at Thu Feb  3 06:54:33 2022.
