 Gaussian 16, Revision C.01,

 ----------------------------------------------------------------------
 # B3LYP/6-31G(d,p) empiricaldispersion=GD3BJ int=(grid=ultrafine) opt
 freq=noraman
 ----------------------------------------------------------------------

 -------
 Ac1.xyz
 -------
 Symbolic Z-matrix:
 Charge =  0 Multiplicity = 1

 SCF Done:  E(RB3LYP) =  -543.664846605     A.U. after   13 cycles
 SCF Done:  E(RB3LYP) =  -543.667135960     A.U. after   12 cycles
 SCF Done:  E(RB3LYP) =  -543.666938305     A.U. after   13 cycles
 SCF Done:  E(RB3LYP) =  -543.667771268     A.U. after   11 cycles
 SCF Done:  E(RB3LYP) =  -543.667783304     A.U. after   12 cycles
 SCF Done:  E(RB3LYP) =  -543.667982397     A.U. after   12 cycles
 SCF Done:  E(RB3LYP) =  -543.668140514     A.U. after   11 cycles
 SCF Done:  E(RB3LYP) =  -543.668251006     A.U. after   11 cycles
 SCF Done:  E(RB3LYP) =  -543.668259804     A.U. after    9 cycles
 SCF Done:  E(RB3LYP) =  -543.668261669     A.U. after    9 cycles
 SCF Done:  E(RB3LYP) =  -543.668262007     A.U. after    9 cycles
 SCF Done:  E(RB3LYP) =  -543.668262290     A.U. after    7 cycles
 SCF Done:  E(RB3LYP) =  -543.668262461     A.U. after    8 cycles
 Optimization completed.
    -- Stationary point found.
 Normal termination of Gaussian 16 at Thu Feb  3 09:23:53 2022.

 ----------------------------------------------------------------------
 #N Geom=AllCheck Guess=TCheck SCRF=Check GenChk RB3LYP/6-31G(d,p) Freq
 ----------------------------------------------------------------------

 Structure from the checkpoint file:  "Ac1_clust-2.chk"
 -------
 Ac1.xyz
 -------
 Charge =  0 Multiplicity = 1

 SCF Done:  E(RB3LYP) =  -543.668262461     A.U. after    1 cycles

                      1                      2                      3
                      A                      A                      A
 Frequencies --     24.7939                32.6246                40.4603
 Red. masses --      3.1268                 3.9768                 3.8224
 Frc consts  --      0.0011                 0.0025                 0.0037
 IR Inten    --      0.2219                 0.1152                 0.7150

                      4                      5                      6
                      A                      A                      A
 Frequencies --     60.2125                78.9546               125.7645
 Red. masses --      4.9843                 3.3402                 1.9097
 Frc consts  --      0.0106                 0.0123                 0.0178
 IR Inten    --      1.4284                 0.3340                 0.1324

                      7                      8                      9
                      A                      A                      A
 Frequencies --    128.5496               137.0787               184.0484
 Red. masses --      2.1872                 2.6000                 2.4856
 Frc consts  --      0.0213                 0.0288                 0.0496
 IR Inten    --      0.2200                 0.0866                 0.3214

                     10                     11                     12
                      A                      A                      A
 Frequencies --    220.3947               269.4692               277.8158
 Red. masses --      1.4772                 2.5481                 2.2790
 Frc consts  --      0.0423                 0.1090                 0.1036
 IR Inten    --      0.0212                 0.4890                 0.8864

                     13                     14                     15
                      A                      A                      A
 Frequencies --    297.2759               313.9703               397.9935
 Red. masses --      1.7505                 2.0966                 2.3929
 Frc consts  --      0.0911                 0.1218                 0.2233
 IR Inten    --      0.9691                 0.1692                 0.2032

                     16                     17                     18
                      A                      A                      A
 Frequencies --    413.8490               494.1913               526.8843
 Red. masses --      2.7502                 2.4322                 2.4033
 Frc consts  --      0.2775                 0.3500                 0.3931
 IR Inten    --      5.6075                 3.4262                 1.2966

                     19                     20                     21
                      A                      A                      A
 Frequencies --    542.4404               627.5652               711.6601
 Red. masses --      2.3103                 2.0877                 1.7350
 Frc consts  --      0.4005                 0.4844                 0.5177
 IR Inten    --     27.1134                33.0869               120.0870

                     22                     23                     24
                      A                      A                      A
 Frequencies --    739.2330               761.5908               787.9455
 Red. masses --      1.2281                 1.1668                 1.3667
 Frc consts  --      0.3954                 0.3987                 0.4999
 IR Inten    --      2.1612                 6.1180                 0.9697

                     25                     26                     27
                      A                      A                      A
 Frequencies --    802.1550               820.5096               881.7488
 Red. masses --      1.8682                 1.5779                 2.0058
 Frc consts  --      0.7083                 0.6259                 0.9188
 IR Inten    --     13.6381                 0.4915                 1.1752

                     28                     29                     30
                      A                      A                      A
 Frequencies --    892.8557               899.9424               942.4979
 Red. masses --      2.6511                 1.7873                 1.9656
 Frc consts  --      1.2452                 0.8529                 1.0287
 IR Inten    --      2.1454                 3.8242                 3.3035

                     31                     32                     33
                      A                      A                      A
 Frequencies --    944.3508               989.3855              1013.9723
 Red. masses --      1.9061                 1.5105                 2.0679
 Frc consts  --      1.0015                 0.8712                 1.2527
 IR Inten    --      1.7531                 3.6747                 0.5446

                     34                     35                     36
                      A                      A                      A
 Frequencies --   1043.8539              1064.0904              1072.9785
 Red. masses --      1.8355                 1.4713                 2.5414
 Frc consts  --      1.1784                 0.9816                 1.7239
 IR Inten    --      1.5016                 1.2022                 1.2432

                     37                     38                     39
                      A                      A                      A
 Frequencies --   1095.0264              1102.8627              1124.8857
 Red. masses --      2.3060                 2.1143                 1.5977
 Frc consts  --      1.6291                 1.5152                 1.1911
 IR Inten    --      4.7089                 0.0495                68.0729

                     40                     41                     42
                      A                      A                      A
 Frequencies --   1144.0850              1180.7988              1195.5849
 Red. masses --      1.8616                 2.2241                 1.6942
 Frc consts  --      1.4356                 1.8270                 1.4269
 IR Inten    --      4.0923                85.8539                84.5998

                     43                     44                     45
                      A                      A                      A
 Frequencies --   1229.4555              1251.1063              1261.4950
 Red. masses --      1.3360                 1.3613                 1.3389
 Frc consts  --      1.1898                 1.2554                 1.2554
 IR Inten    --      1.5027                13.2054                 0.5690

                     46                     47                     48
                      A                      A                      A
 Frequencies --   1298.4183              1309.2106              1323.3785
 Red. masses --      1.2959                 1.3274                 1.3034
 Frc consts  --      1.2872                 1.3405                 1.3449
 IR Inten    --      0.4541                 0.9843                 2.1379

                     49                     50                     51
                      A                      A                      A
 Frequencies --   1330.1063              1340.1929              1345.7616
 Red. masses --      1.2803                 1.1855                 1.1641
 Frc consts  --      1.3346                 1.2546                 1.2422
 IR Inten    --      0.6889                 1.8840                 2.1242

                     52                     53                     54
                      A                      A                      A
 Frequencies --   1360.9031              1385.8096              1391.4916
 Red. masses --      1.1268                 1.3740                 1.4139
 Frc consts  --      1.2296                 1.5547                 1.6130
 IR Inten    --      1.7086                 9.4320                 3.8113

                     55                     56                     57
                      A                      A                      A
 Frequencies --   1393.3068              1415.2475              1420.7259
 Red. masses --      1.4610                 1.4916                 1.8852
 Frc consts  --      1.6710                 1.7602                 2.2420
 IR Inten    --      5.7526                 0.4605                39.0271

                     58                     59                     60
                      A                      A                      A
 Frequencies --   1425.9511              1430.3982              1481.0739
 Red. masses --      1.5480                 1.2963                 1.1208
 Frc consts  --      1.8545                 1.5626                 1.4485
 IR Inten    --     11.0024                 4.5481                12.3183

                     61                     62                     63
                      A                      A                      A
 Frequencies --   1494.2761              1498.0617              1501.6855
 Red. masses --      1.0759                 1.0774                 1.0846
 Frc consts  --      1.4154                 1.4246                 1.4411
 IR Inten    --      0.6769                 7.6998                 1.8605

                     64                     65                     66
                      A                      A                      A
 Frequencies --   1503.7093              1505.6168              1512.8219
 Red. masses --      1.0652                 1.0895                 1.0866
 Frc consts  --      1.4191                 1.4551                 1.4652
 IR Inten    --      0.6228                 1.6282                 0.7361

                     67                     68                     69
                      A                      A                      A
 Frequencies --   1517.2751              1522.5724              1523.4845
 Red. masses --      1.0609                 1.0968                 1.0641
 Frc consts  --      1.4390                 1.4981                 1.4551
 IR Inten    --      5.3568                 1.5233                 5.2996

                     70                     71                     72
                      A                      A                      A
 Frequencies --   1841.9309              3011.9102              3015.9699
 Red. masses --      9.5647                 1.0606                 1.0613
 Frc consts  --     19.1192                 5.6688                 5.6880
 IR Inten    --    207.8602                 3.0248                14.3621

                     73                     74                     75
                      A                      A                      A
 Frequencies --   3018.8381              3025.2798              3025.8886
 Red. masses --      1.0618                 1.0640                 1.0630
 Frc consts  --      5.7013                 5.7373                 5.7344
 IR Inten    --     33.8269                49.5265                27.9905

                     76                     77                     78
                      A                      A                      A
 Frequencies --   3039.5783              3040.6485              3045.5782
 Red. masses --      1.0618                 1.0384                 1.0708
 Frc consts  --      5.7801                 5.6567                 5.8520
 IR Inten    --     35.3104                21.3319                 6.4784

                     79                     80                     81
                      A                      A                      A
 Frequencies --   3048.7522              3049.3973              3052.1446
 Red. masses --      1.0975                 1.0861                 1.0919
 Frc consts  --      6.0105                 5.9504                 5.9929
 IR Inten    --     14.0448                24.8774                 2.2737

                     82                     83                     84
                      A                      A                      A
 Frequencies --   3059.8337              3061.1312              3077.3331
 Red. masses --      1.0812                 1.0938                 1.1029
 Frc consts  --      5.9641                 6.0389                 6.1536
 IR Inten    --     43.2301                15.6595                97.0676

                     85                     86                     87
                      A                      A                      A
 Frequencies --   3090.2765              3097.4808              3107.8445
 Red. masses --      1.1031                 1.1031                 1.1014
 Frc consts  --      6.2066                 6.2354                 6.2677
 IR Inten    --     56.6926                19.3296                50.3147

                     88                     89                     90
                      A                      A                      A
 Frequencies --   3111.4155              3118.5322              3745.5698
 Red. masses --      1.0981                 1.1017                 1.0639
 Frc consts  --      6.2634                 6.3128                 8.7942
 IR Inten    --     26.9029                47.2197                40.9039

 - Thermochemistry -
 -------------------
 Temperature   298.150 Kelvin.  Pressure   1.00000 Atm.
 Atom     1 has atomic number  8 and mass  15.99491

 Molecular mass:   172.14633 amu.
 Principal axes and moments of inertia in atomic units:
                           1         2         3
     Eigenvalues --  1529.504974307.836605249.89780
           X            0.99961   0.02718  -0.00589
           Y           -0.02717   0.99963   0.00128
           Z            0.00593  -0.00112   0.99998
 This molecule is an asymmetric top.
 Rotational symmetry number  1.
 Warning -- assumption of classical behavior for rotation
           may cause significant error
 Rotational temperatures (Kelvin)      0.05663     0.02011     0.01650
 Rotational constants (GHZ):           1.17995     0.41894     0.34377
 Zero-point vibrational energy     766000.1 (Joules/Mol)
                                  183.07842 (Kcal/Mol)
 Warning -- explicit consideration of  19 degrees of freedom as
           vibrations may cause significant error
 Vibrational temperatures:     35.67    46.94    58.21    86.63   113.60
          (Kelvin)            180.95   184.95   197.23   264.80   317.10
                              387.71   399.71   427.71   451.73   572.62
                              595.44   711.03   758.07   780.45   902.93
                             1023.92  1063.59  1095.76  1133.68  1154.12
                             1180.53  1268.64  1284.62  1294.82  1356.04
                             1358.71  1423.51  1458.88  1501.87  1530.99
                             1543.78  1575.50  1586.77  1618.46  1646.08
                             1698.91  1720.18  1768.91  1800.06  1815.01
                             1868.13  1883.66  1904.05  1913.73  1928.24
                             1936.25  1958.04  1993.87  2002.05  2004.66
                             2036.23  2044.11  2051.63  2058.02  2130.94
                             2149.93  2155.38  2160.59  2163.50  2166.25
                             2176.61  2183.02  2190.64  2191.95  2650.13
                             4333.47  4339.31  4343.43  4352.70  4353.58
                             4373.28  4374.82  4381.91  4386.47  4387.40
                             4391.36  4402.42  4404.28  4427.60  4446.22
                             4456.58  4471.50  4476.63  4486.87  5389.04

 Zero-point correction=                           0.291754 (Hartree/Particle)
 Thermal correction to Energy=                    0.306345
 Thermal correction to Enthalpy=                  0.307289
 Thermal correction to Gibbs Free Energy=         0.247830
 Sum of electronic and zero-point Energies=           -543.376508
 Sum of electronic and thermal Energies=              -543.361918
 Sum of electronic and thermal Enthalpies=            -543.360974
 Sum of electronic and thermal Free Energies=         -543.420432

                     E (Thermal)             CV                S
                      KCal/Mol        Cal/Mol-Kelvin    Cal/Mol-Kelvin
 Total                  192.234             52.329            125.141
 Electronic               0.000              0.000              0.000
 Translational            0.889              2.981             41.337
 Rotational               0.889              2.981             31.914
 Vibrational            190.457             46.367             51.890
 Vibration     1          0.593              1.985              6.208
 Vibration     2          0.594              1.983              5.663
 Vibration     3          0.594              1.981              5.236
 Vibration     4          0.597              1.973              4.450
 Vibration     5          0.600              1.963              3.917
 Vibration     6          0.611              1.927              3.010
 Vibration     7          0.611              1.925              2.968
 Vibration     8          0.614              1.916              2.844
 Vibration     9          0.631              1.862              2.287
 Vibration    10          0.647              1.810              1.956
 Vibration    11          0.674              1.729              1.600
 Vibration    12          0.679              1.715              1.547
 Vibration    13          0.691              1.679              1.432
 Vibration    14          0.702              1.647              1.341
 Vibration    15          0.764              1.474              0.970
 Vibration    16          0.777              1.440              0.913
 Vibration    17          0.850              1.263              0.673
 Vibration    18          0.882              1.190              0.594
 Vibration    19          0.898              1.156              0.560

 Optimization completed.
    -- Stationary point found.
 Normal termination of Gaussian 16 at Thu Feb  3 09:25:24 2022.

 ----------------------------------------------------------------------
 # M062X/def2tzvp int=(grid=ultrafine) pop=nbo7 polar prop=efg volume g
 uess=read geom=check
 ----------------------------------------------------------------------

 -------
 Ac1.xyz
 -------
 Structure from the checkpoint file:  "Ac1_clust-2.chk"
 Charge =  0 Multiplicity = 1

 SCF Done:  E(RM062X) =  -543.542563154     A.U. after   11 cycles

  Exact polarizability:     137.884       8.248     124.348      -0.905      -0.129     111.472
 Approx polarizability:     141.741       3.539     144.045      -0.542      -0.218     150.547

 Summary of Natural Population Analysis:

                                     Natural Population
             Natural    ---------------------------------------------
  Atom No    Charge        Core      Valence    Rydberg      Total
 --------------------------------------------------------------------
    O  1   -0.68964      2.00000     6.66748    0.02216     8.68964
    C  2    0.80145      1.99999     3.16105    0.03751     5.19855
    C  3   -0.51975      1.99999     4.50635    0.01341     6.51975
    C  4   -0.38878      1.99999     4.37760    0.01119     6.38878
    C  5   -0.38793      1.99999     4.37704    0.01090     6.38793
    C  6   -0.40794      1.99999     4.39595    0.01199     6.40794
    C  7   -0.38366      1.99999     4.37274    0.01092     6.38366
    C  8   -0.39413      1.99999     4.38299    0.01114     6.39413
    C  9   -0.39505      1.99999     4.38388    0.01118     6.39505
    C 10   -0.38903      1.99999     4.37880    0.01024     6.38903
    C 11   -0.60892      1.99999     4.60011    0.00882     6.60892
    O 12   -0.60547      2.00000     6.57884    0.02663     8.60547
    H 13    0.49253      0.00000     0.50403    0.00344     0.50747
    H 14    0.22599      0.00000     0.77243    0.00157     0.77401
    H 15    0.24388      0.00000     0.75501    0.00112     0.75612
    H 16    0.22083      0.00000     0.77737    0.00180     0.77917
    H 17    0.20859      0.00000     0.79002    0.00139     0.79141
    H 18    0.20326      0.00000     0.79508    0.00166     0.79674
    H 19    0.19193      0.00000     0.80613    0.00194     0.80807
    H 20    0.19456      0.00000     0.80337    0.00207     0.80544
    H 21    0.20728      0.00000     0.79075    0.00197     0.79272
    H 22    0.19920      0.00000     0.79911    0.00170     0.80080
    H 23    0.19134      0.00000     0.80667    0.00199     0.80866
    H 24    0.19919      0.00000     0.79909    0.00172     0.80081
    H 25    0.19617      0.00000     0.80196    0.00187     0.80383
    H 26    0.19857      0.00000     0.79976    0.00167     0.80143
    H 27    0.19273      0.00000     0.80530    0.00197     0.80727
    H 28    0.19251      0.00000     0.80562    0.00187     0.80749
    H 29    0.19905      0.00000     0.79940    0.00155     0.80095
    H 30    0.20201      0.00000     0.79685    0.00115     0.79799
    H 31    0.20910      0.00000     0.78995    0.00095     0.79090
    H 32    0.20013      0.00000     0.79855    0.00132     0.79987
 ====================================================================
 * Total *  0.00000     23.99992    71.77929    0.22079    96.00000

 1\1\GINC-NOTCH075\SP\RM062X\def2TZVP\C10H20O2\U6032257\03-Feb-2022\0\\
 # M062X/def2tzvp int=(grid=ultrafine) pop=nbo7 polar prop=efg volume g
 uess=read geom=check\\Ac1.xyz\\0,1\O,0,4.6785467812,0.0142528112,-1.57
 58341493\C,0,4.8304678263,-1.0562585112,-0.7560920166\C,0,3.9140188916
 ,-0.9924788659,0.4458846951\C,0,3.371607103,-2.371009856,0.8515508574\
 C,0,2.1858922243,-2.848257864,0.001415254\C,0,2.4714123745,-2.95128431
 38,-1.5001314722\C,0,1.2923685172,-3.5210022195,-2.2946727876\C,0,1.57
 52130852,-3.684093526,-3.7941259356\C,0,1.8488389982,-2.3637110702,-4.

 Normal termination of Gaussian 16 at Thu Feb  3 09:28:54 2022.
 Gaussian 16:  ES64L-G16RevC.01  3-Jul-2019

 --------------------------------------------------------------------
 # M062X/def2tzvp int=(grid=ultrafine) nmr=giao guess=read geom=check
 --------------------------------------------------------------------

 -------
 Ac1.xyz
 -------
 Structure from the checkpoint file:  "Ac1_clust-2.chk"
 Charge =  0 Multiplicity = 1

                         Standard orientation:
 ---------------------------------------------------------------------
 Center     Atomic      Atomic             Coordinates (Angstroms)
 Number     Number       Type             X           Y           Z
 ---------------------------------------------------------------------
      1          8           0        1.757472   -2.150620   -0.906412
      2          6           0        2.281406   -1.360895    0.064607
      3          6           0        3.105451   -0.225810   -0.502162
      4          6           0        2.952590    1.075444    0.299395
      5          6           0        1.678607    1.864952   -0.032357
      6          6           0        0.371018    1.097786    0.187749
      7          6           0       -0.873652    1.954123   -0.064251
      8          6           0       -2.195497    1.221756    0.202814
      9          6           0       -2.439716    0.019029   -0.717119
     10          6           0       -3.829287   -0.614346   -0.563269
     11          6           0       -4.082059   -1.231917    0.815333
     12          8           0        2.108486   -1.584624    1.242859
     13          1           0        1.277477   -2.858259   -0.443043
     14          1           0        2.857434   -0.085497   -1.558185
     15          1           0        4.148196   -0.565830   -0.462742
     16          1           0        2.972285    0.822028    1.364797
     17          1           0        3.823919    1.710234    0.105228
     18          1           0        1.667079    2.778139    0.576855
     19          1           0        1.724777    2.198963   -1.078727
     20          1           0        0.344606    0.227022   -0.477114
     21          1           0        0.344499    0.701418    1.211033
     22          1           0       -0.825187    2.849124    0.570053
     23          1           0       -0.861375    2.315114   -1.102598
     24          1           0       -3.026893    1.929859    0.084647
     25          1           0       -2.216046    0.898308    1.251251
     26          1           0       -2.305876    0.339774   -1.759337
     27          1           0       -1.677838   -0.750104   -0.534939
     28          1           0       -4.596248    0.144283   -0.770260
     29          1           0       -3.952202   -1.388726   -1.330810
     30          1           0       -4.062445   -0.477569    1.607741
     31          1           0       -5.058159   -1.725657    0.855221
     32          1           0       -3.318838   -1.981401    1.054922
 ---------------------------------------------------------------------

 SCF Done:  E(RM062X) =  -543.542563154     A.U. after    1 cycles

      1  O    Isotropic =    96.6638   Anisotropy =   233.4938

      2  C    Isotropic =   -11.0494   Anisotropy =   130.3093

      3  C    Isotropic =   149.4143   Anisotropy =    27.0173

      4  C    Isotropic =   159.1745   Anisotropy =    13.9855

      5  C    Isotropic =   150.7765   Anisotropy =    24.2214

      6  C    Isotropic =   155.3668   Anisotropy =    20.1510

      7  C    Isotropic =   151.3121   Anisotropy =    25.4615

      8  C    Isotropic =   155.0505   Anisotropy =    22.8327

      9  C    Isotropic =   152.8727   Anisotropy =    22.9531

     10  C    Isotropic =   160.1947   Anisotropy =    18.2264

     11  C    Isotropic =   172.6074   Anisotropy =    21.3463

     12  O    Isotropic =  -158.6319   Anisotropy =   658.9302

     13  H    Isotropic =    25.7113   Anisotropy =    10.4851

     14  H    Isotropic =    29.7332   Anisotropy =     4.9426

     15  H    Isotropic =    29.6623   Anisotropy =     8.9316

     16  H    Isotropic =    29.7334   Anisotropy =     7.1382

     17  H    Isotropic =    30.3092   Anisotropy =    10.3922

     18  H    Isotropic =    30.4779   Anisotropy =     7.5416

     19  H    Isotropic =    30.7977   Anisotropy =     6.6494

     20  H    Isotropic =    30.5456   Anisotropy =     7.3129

     21  H    Isotropic =    31.1464   Anisotropy =     4.6611

     22  H    Isotropic =    30.5100   Anisotropy =     7.6022

     23  H    Isotropic =    30.8284   Anisotropy =     6.2141

     24  H    Isotropic =    30.8318   Anisotropy =     8.2816

     25  H    Isotropic =    30.4385   Anisotropy =     5.4084

     26  H    Isotropic =    30.7531   Anisotropy =     6.5013

     27  H    Isotropic =    30.5995   Anisotropy =     7.2028

     28  H    Isotropic =    30.7285   Anisotropy =     8.3879

     29  H    Isotropic =    30.3414   Anisotropy =     9.4558

     30  H    Isotropic =    30.8374   Anisotropy =     6.9143

     31  H    Isotropic =    30.8929   Anisotropy =    11.1734

     32  H    Isotropic =    31.3892   Anisotropy =     8.1984

 The electronic state is 1-A.
 Alpha  occ. eigenvalues --  -19.67700 -19.62029 -10.67991 -10.55440 -10.53921
 Alpha  occ. eigenvalues --  -10.53235 -10.52754 -10.52727 -10.52622 -10.52563
 Alpha  occ. eigenvalues --  -10.52526 -10.51959  -1.23626  -1.14020  -0.91943
 Alpha  occ. eigenvalues --   -0.90015  -0.86686  -0.82563  -0.78059  -0.74202
 Alpha  occ. eigenvalues --   -0.69876  -0.67231  -0.64881  -0.63638  -0.58594
 Alpha  occ. eigenvalues --   -0.57620  -0.56356  -0.53820  -0.52519  -0.51388
 Alpha  occ. eigenvalues --   -0.50306  -0.49337  -0.48780  -0.47184  -0.45974
 Alpha  occ. eigenvalues --   -0.44665  -0.43688  -0.43650  -0.41185  -0.40511
 Alpha  occ. eigenvalues --   -0.40257  -0.39101  -0.38936  -0.38183  -0.37211
 Alpha  occ. eigenvalues --   -0.36420  -0.36336  -0.35712
 Alpha virt. eigenvalues --    0.04151   0.05153   0.06873   0.07519   0.08926
 Alpha virt. eigenvalues --    0.09456   0.10693   0.10841   0.11160   0.12925
 Alpha virt. eigenvalues --    0.12995   0.13771   0.14482   0.14559   0.15472

 Mulliken charges:
               1
     1  O   -0.403787
     2  C    0.309358
     3  C   -0.314297
     4  C   -0.265001
     5  C   -0.296021
     6  C   -0.347489
     7  C   -0.273615
     8  C   -0.288680
     9  C   -0.290110
    10  C   -0.248283
    11  C   -0.440168
    12  O   -0.330485
    13  H    0.335816
    14  H    0.172239
    15  H    0.170065
    16  H    0.179196
    17  H    0.144721
    18  H    0.143996
    19  H    0.152170
    20  H    0.156192
    21  H    0.173639
    22  H    0.142237
    23  H    0.146877
    24  H    0.144476
    25  H    0.153874
    26  H    0.141981
    27  H    0.140187
    28  H    0.135388
    29  H    0.134273
    30  H    0.143133
    31  H    0.142040
    32  H    0.136076
 Sum of Mulliken charges =  -0.00000

 Dipole moment (field-independent basis, Debye):
    X=              0.1451    Y=              0.4792    Z=             -1.4248  Tot=              1.5103
 Quadrupole moment (field-independent basis, Debye-Ang):
   XX=            -74.3278   YY=            -74.5427   ZZ=            -82.2814
   XY=              2.6312   XZ=             -3.1685   YZ=              2.4429

 1\1\GINC-NOTCH075\SP\RM062X\def2TZVP\C10H20O2\U6032257\03-Feb-2022\0\\
 # M062X/def2tzvp int=(grid=ultrafine) nmr=giao guess=read geom=check\\
 Ac1.xyz\\0,1\O,0,4.6785467812,0.0142528112,-1.5758341493\C,0,4.8304678
 263,-1.0562585112,-0.7560920166\C,0,3.9140188916,-0.9924788659,0.44588
 46951\C,0,3.371607103,-2.371009856,0.8515508574\C,0,2.1858922243,-2.84
 8257864,0.001415254\C,0,2.4714123745,-2.9512843138,-1.5001314722\C,0,1
 .2923685172,-3.5210022195,-2.2946727876\C,0,1.5752130852,-3.684093526,
 -3.7941259356\C,0,1.8488389982,-2.3637110702,-4.5250095459\C,0,1.96992

 Normal termination of Gaussian 16 at Thu Feb  3 09:30:20 2022.
