 Gaussian 16, Revision C.01,

 ----------------------------------------------------------------------
 # B3LYP/6-31G(d,p) empiricaldispersion=GD3BJ int=(grid=ultrafine) opt
 freq=noraman
 ----------------------------------------------------------------------

 -------
 Ac1.xyz
 -------
 Symbolic Z-matrix:
 Charge =  0 Multiplicity = 1

 SCF Done:  E(RB3LYP) =  -543.664481463     A.U. after   13 cycles
 SCF Done:  E(RB3LYP) =  -543.666330409     A.U. after   12 cycles
 SCF Done:  E(RB3LYP) =  -543.665411432     A.U. after   12 cycles
 SCF Done:  E(RB3LYP) =  -543.666571356     A.U. after   10 cycles
 SCF Done:  E(RB3LYP) =  -543.666584407     A.U. after    9 cycles
 SCF Done:  E(RB3LYP) =  -543.666585426     A.U. after    8 cycles
 SCF Done:  E(RB3LYP) =  -543.666585637     A.U. after    7 cycles
 SCF Done:  E(RB3LYP) =  -543.666585765     A.U. after    7 cycles
 SCF Done:  E(RB3LYP) =  -543.666585889     A.U. after    8 cycles
 SCF Done:  E(RB3LYP) =  -543.666586012     A.U. after    8 cycles
 SCF Done:  E(RB3LYP) =  -543.666586057     A.U. after    8 cycles
 Optimization completed.
    -- Stationary point found.
 Normal termination of Gaussian 16 at Thu Feb  3 10:36:59 2022.

 ----------------------------------------------------------------------
 #N Geom=AllCheck Guess=TCheck SCRF=Check GenChk RB3LYP/6-31G(d,p) Freq
 ----------------------------------------------------------------------

 Structure from the checkpoint file:  "Ac1_clust-38.chk"
 -------
 Ac1.xyz
 -------
 Charge =  0 Multiplicity = 1

 SCF Done:  E(RB3LYP) =  -543.666586057     A.U. after    1 cycles

                      1                      2                      3
                      A                      A                      A
 Frequencies --     19.5688                24.6805                26.8949
 Red. masses --      8.3093                 4.6764                 2.8089
 Frc consts  --      0.0019                 0.0017                 0.0012
 IR Inten    --      0.9210                 0.3816                 0.0678

                      4                      5                      6
                      A                      A                      A
 Frequencies --     60.4921                78.9737               107.0130
 Red. masses --      3.1902                 2.9081                 2.5082
 Frc consts  --      0.0069                 0.0107                 0.0169
 IR Inten    --      0.3446                 0.0377                 0.0338

                      7                      8                      9
                      A                      A                      A
 Frequencies --    114.4951               146.1231               169.9489
 Red. masses --      1.8153                 2.0310                 2.8098
 Frc consts  --      0.0140                 0.0256                 0.0478
 IR Inten    --      0.0305                 0.0302                 0.0203

                     10                     11                     12
                      A                      A                      A
 Frequencies --    197.7003               229.0687               264.5612
 Red. masses --      1.9886                 2.5645                 1.4593
 Frc consts  --      0.0458                 0.0793                 0.0602
 IR Inten    --      0.0360                 0.2183                 0.0616

                     13                     14                     15
                      A                      A                      A
 Frequencies --    301.6876               356.7077               376.4356
 Red. masses --      2.0242                 2.6469                 2.6610
 Frc consts  --      0.1085                 0.1984                 0.2222
 IR Inten    --      0.0702                 0.0516                 0.4502

                     16                     17                     18
                      A                      A                      A
 Frequencies --    428.5218               456.7757               524.3734
 Red. masses --      2.8979                 2.3734                 2.3690
 Frc consts  --      0.3135                 0.2918                 0.3838
 IR Inten    --      2.8370                 0.5035                 4.7252

                     19                     20                     21
                      A                      A                      A
 Frequencies --    582.3163               627.0523               728.3523
 Red. masses --      2.2280                 1.6711                 1.5415
 Frc consts  --      0.4451                 0.3871                 0.4818
 IR Inten    --     50.7774                67.3259                43.4735

                     22                     23                     24
                      A                      A                      A
 Frequencies --    733.7852               742.7488               771.0318
 Red. masses --      1.6558                 1.1468                 1.2484
 Frc consts  --      0.5253                 0.3728                 0.4373
 IR Inten    --     15.1415                 1.0567                 8.7238

                     25                     26                     27
                      A                      A                      A
 Frequencies --    805.1073               850.9567               863.8547
 Red. masses --      1.2979                 1.4458                 2.7148
 Frc consts  --      0.4957                 0.6169                 1.1936
 IR Inten    --      0.3944                 2.9747                 0.2913

                     28                     29                     30
                      A                      A                      A
 Frequencies --    892.4514               901.7693               923.8423
 Red. masses --      2.3979                 2.9921                 1.5913
 Frc consts  --      1.1253                 1.4336                 0.8002
 IR Inten    --      1.8710                 5.2972                 1.3330

                     31                     32                     33
                      A                      A                      A
 Frequencies --    978.8839               992.2830              1001.6035
 Red. masses --      1.9689                 1.9695                 1.6443
 Frc consts  --      1.1116                 1.1426                 0.9719
 IR Inten    --      2.4337                11.6377                 1.3255

                     34                     35                     36
                      A                      A                      A
 Frequencies --   1038.8589              1055.7678              1078.8880
 Red. masses --      1.5995                 2.5015                 1.8848
 Frc consts  --      1.0170                 1.6428                 1.2926
 IR Inten    --      6.9189                 0.2360                36.6952

                     37                     38                     39
                      A                      A                      A
 Frequencies --   1092.4562              1101.4729              1121.4766
 Red. masses --      2.1536                 2.3899                 1.5458
 Frc consts  --      1.5143                 1.7084                 1.1455
 IR Inten    --     10.8855                 1.1926                42.3944

                     40                     41                     42
                      A                      A                      A
 Frequencies --   1146.0453              1167.7880              1210.7000
 Red. masses --      1.6786                 1.9679                 1.6737
 Frc consts  --      1.2990                 1.5812                 1.4455
 IR Inten    --      4.4062                53.5107                 2.5428

                     43                     44                     45
                      A                      A                      A
 Frequencies --   1228.1484              1264.3005              1271.5461
 Red. masses --      1.5670                 1.3274                 1.3711
 Frc consts  --      1.3926                 1.2501                 1.3061
 IR Inten    --    102.6932                 9.6201                 3.5256

                     46                     47                     48
                      A                      A                      A
 Frequencies --   1295.8836              1304.7522              1316.5265
 Red. masses --      1.2996                 1.2629                 1.2099
 Frc consts  --      1.2858                 1.2667                 1.2355
 IR Inten    --      0.6637                 0.6143                 0.5470

                     49                     50                     51
                      A                      A                      A
 Frequencies --   1332.2475              1340.5995              1344.4838
 Red. masses --      1.2016                 1.0599                 1.1236
 Frc consts  --      1.2566                 1.1223                 1.1966
 IR Inten    --      0.2894                 0.1608                 6.2898

                     52                     53                     54
                      A                      A                      A
 Frequencies --   1362.3174              1383.7346              1386.7541
 Red. masses --      1.2870                 2.1401                 1.3810
 Frc consts  --      1.4073                 2.4143                 1.5647
 IR Inten    --      0.5333                79.8094                11.1697

                     55                     56                     57
                      A                      A                      A
 Frequencies --   1395.7802              1400.9874              1411.7465
 Red. masses --      1.4082                 1.5967                 1.4810
 Frc consts  --      1.6164                 1.8465                 1.7391
 IR Inten    --      8.0439                 5.2022                 1.7998

                     58                     59                     60
                      A                      A                      A
 Frequencies --   1420.6458              1429.8567              1490.9316
 Red. masses --      1.6292                 1.2783                 1.1000
 Frc consts  --      1.9374                 1.5398                 1.4406
 IR Inten    --      0.0656                 5.7644                 4.9316

                     61                     62                     63
                      A                      A                      A
 Frequencies --   1496.2974              1497.4222              1502.9533
 Red. masses --      1.0810                 1.0755                 1.0692
 Frc consts  --      1.4260                 1.4208                 1.4230
 IR Inten    --      1.5484                 0.5594                 0.5610

                     64                     65                     66
                      A                      A                      A
 Frequencies --   1504.6719              1510.4738              1517.1161
 Red. masses --      1.0821                 1.0871                 1.0547
 Frc consts  --      1.4434                 1.4614                 1.4303
 IR Inten    --      0.4150                 2.4794                 2.2650

                     67                     68                     69
                      A                      A                      A
 Frequencies --   1517.1938              1522.9093              1525.7519
 Red. masses --      1.0901                 1.0709                 1.0920
 Frc consts  --      1.4784                 1.4633                 1.4978
 IR Inten    --     10.0742                 2.8691                 2.9722

                     70                     71                     72
                      A                      A                      A
 Frequencies --   1848.2123              3012.7823              3013.8894
 Red. masses --      9.5533                 1.0615                 1.0612
 Frc consts  --     19.2269                 5.6770                 5.6795
 IR Inten    --    270.9419                 1.7912                 0.2435

                     73                     74                     75
                      A                      A                      A
 Frequencies --   3021.1612              3025.6374              3026.0017
 Red. masses --      1.0615                 1.0642                 1.0626
 Frc consts  --      5.7086                 5.7402                 5.7326
 IR Inten    --     17.7942                 5.1463                62.5381

                     76                     77                     78
                      A                      A                      A
 Frequencies --   3031.6929              3039.9223              3043.8173
 Red. masses --      1.0622                 1.0436                 1.0861
 Frc consts  --      5.7522                 5.6821                 5.9286
 IR Inten    --     63.4333                23.0356                 3.8455

                     79                     80                     81
                      A                      A                      A
 Frequencies --   3049.2811              3049.7090              3060.0201
 Red. masses --      1.0754                 1.0943                 1.0892
 Frc consts  --      5.8914                 5.9965                 6.0092
 IR Inten    --      0.9479                15.3553                 1.8108

                     82                     83                     84
                      A                      A                      A
 Frequencies --   3061.8454              3065.3122              3071.5169
 Red. masses --      1.0843                 1.0917                 1.0954
 Frc consts  --      5.9894                 6.0439                 6.0886
 IR Inten    --      5.4814                48.1655                28.2606

                     85                     86                     87
                      A                      A                      A
 Frequencies --   3081.8030              3096.7636              3108.0599
 Red. masses --      1.1041                 1.1019                 1.1015
 Frc consts  --      6.1784                 6.2262                 6.2693
 IR Inten    --    161.3845                26.5645                46.6208

                     88                     89                     90
                      A                      A                      A
 Frequencies --   3116.9841              3141.5109              3754.1467
 Red. masses --      1.1018                 1.0995                 1.0641
 Frc consts  --      6.3070                 6.3935                 8.8360
 IR Inten    --     50.7667                19.9370                49.1437

 - Thermochemistry -
 -------------------
 Temperature   298.150 Kelvin.  Pressure   1.00000 Atm.
 Atom     1 has atomic number  8 and mass  15.99491

 Molecular mass:   172.14633 amu.
 Principal axes and moments of inertia in atomic units:
                           1         2         3
     Eigenvalues --  1030.760136813.061117553.80100
           X            0.99992  -0.01281  -0.00162
           Y            0.01280   0.99990  -0.00642
           Z            0.00170   0.00640   0.99998
 This molecule is an asymmetric top.
 Rotational symmetry number  1.
 Warning -- assumption of classical behavior for rotation
           may cause significant error
 Rotational temperatures (Kelvin)      0.08403     0.01271     0.01147
 Rotational constants (GHZ):           1.75088     0.26489     0.23892
 Zero-point vibrational energy     765547.9 (Joules/Mol)
                                  182.97034 (Kcal/Mol)
 Warning -- explicit consideration of  19 degrees of freedom as
           vibrations may cause significant error
 Vibrational temperatures:     28.16    35.51    38.70    87.03   113.63
          (Kelvin)            153.97   164.73   210.24   244.52   284.45
                              329.58   380.64   434.06   513.22   541.61
                              616.55   657.20   754.46   837.82   902.19
                             1047.94  1055.75  1068.65  1109.34  1158.37
                             1224.34  1242.89  1284.04  1297.44  1329.20
                             1408.40  1427.67  1441.08  1494.69  1519.01
                             1552.28  1571.80  1584.77  1613.55  1648.90
                             1680.19  1741.93  1767.03  1819.05  1829.47
                             1864.49  1877.25  1894.19  1916.81  1928.82
                             1934.41  1960.07  1990.89  1995.23  2008.22
                             2015.71  2031.19  2043.99  2057.24  2145.12
                             2152.84  2154.46  2162.41  2164.89  2173.23
                             2182.79  2182.90  2191.13  2195.22  2659.17
                             4334.72  4336.31  4346.78  4353.22  4353.74
                             4361.93  4373.77  4379.37  4387.24  4387.85
                             4402.69  4405.31  4410.30  4419.23  4434.03
                             4455.55  4471.80  4484.64  4519.93  5401.38

 Zero-point correction=                           0.291582 (Hartree/Particle)
 Thermal correction to Energy=                    0.306370
 Thermal correction to Enthalpy=                  0.307315
 Thermal correction to Gibbs Free Energy=         0.246325
 Sum of electronic and zero-point Energies=           -543.375004
 Sum of electronic and thermal Energies=              -543.360216
 Sum of electronic and thermal Enthalpies=            -543.359271
 Sum of electronic and thermal Free Energies=         -543.420262

                     E (Thermal)             CV                S
                      KCal/Mol        Cal/Mol-Kelvin    Cal/Mol-Kelvin
 Total                  192.250             52.434            128.364
 Electronic               0.000              0.000              0.000
 Translational            0.889              2.981             41.337
 Rotational               0.889              2.981             32.339
 Vibrational            190.473             46.473             54.688
 Vibration     1          0.593              1.986              6.677
 Vibration     2          0.593              1.985              6.217
 Vibration     3          0.593              1.984              6.046
 Vibration     4          0.597              1.973              4.441
 Vibration     5          0.600              1.963              3.916
 Vibration     6          0.606              1.944              3.322
 Vibration     7          0.607              1.937              3.191
 Vibration     8          0.617              1.907              2.722
 Vibration     9          0.625              1.879              2.436
 Vibration    10          0.637              1.843              2.154
 Vibration    11          0.652              1.797              1.886
 Vibration    12          0.671              1.738              1.631
 Vibration    13          0.694              1.670              1.408
 Vibration    14          0.732              1.561              1.136
 Vibration    15          0.747              1.520              1.053
 Vibration    16          0.790              1.408              0.863
 Vibration    17          0.815              1.346              0.776
 Vibration    18          0.879              1.196              0.600
 Vibration    19          0.939              1.070              0.481

                           ! Non-Optimized Parameters !
 Normal termination of Gaussian 16 at Thu Feb  3 10:38:20 2022.

 ----------------------------------------------------------------------
 # M062X/def2tzvp int=(grid=ultrafine) pop=nbo7 polar prop=efg volume g
 uess=read geom=check
 ----------------------------------------------------------------------

 -------
 Ac1.xyz
 -------
 Structure from the checkpoint file:  "Ac1_clust-38.chk"
 Charge =  0 Multiplicity = 1

 SCF Done:  E(RM062X) =  -543.541856186     A.U. after   11 cycles

  Exact polarizability:     150.284      -1.406     123.030      -3.244      -0.860     104.930
 Approx polarizability:     145.747      -1.483     151.038      -1.850      -0.280     137.942

 Summary of Natural Population Analysis:

                                     Natural Population
             Natural    ---------------------------------------------
  Atom No    Charge        Core      Valence    Rydberg      Total
 --------------------------------------------------------------------
    O  1   -0.69429      2.00000     6.67230    0.02199     8.69429
    C  2    0.79741      1.99999     3.16575    0.03685     5.20259
    C  3   -0.51232      1.99999     4.49833    0.01400     6.51232
    C  4   -0.38918      1.99999     4.37880    0.01039     6.38918
    C  5   -0.38793      1.99999     4.37696    0.01099     6.38793
    C  6   -0.39438      1.99999     4.38342    0.01097     6.39438
    C  7   -0.39602      1.99999     4.38450    0.01153     6.39602
    C  8   -0.39297      1.99999     4.38171    0.01127     6.39297
    C  9   -0.38865      1.99999     4.37765    0.01101     6.38865
    C 10   -0.38999      1.99999     4.37979    0.01020     6.38999
    C 11   -0.60891      1.99999     4.60013    0.00878     6.60891
    O 12   -0.59294      2.00000     6.56676    0.02619     8.59294
    H 13    0.49364      0.00000     0.50300    0.00336     0.50636
    H 14    0.22722      0.00000     0.77109    0.00169     0.77278
    H 15    0.22856      0.00000     0.76991    0.00153     0.77144
    H 16    0.21795      0.00000     0.78057    0.00148     0.78205
    H 17    0.20517      0.00000     0.79314    0.00169     0.79483
    H 18    0.20104      0.00000     0.79732    0.00164     0.79896
    H 19    0.20424      0.00000     0.79416    0.00160     0.79576
    H 20    0.19312      0.00000     0.80508    0.00180     0.80688
    H 21    0.20414      0.00000     0.79423    0.00163     0.79586
    H 22    0.19490      0.00000     0.80313    0.00197     0.80510
    H 23    0.19533      0.00000     0.80270    0.00198     0.80467
    H 24    0.19446      0.00000     0.80361    0.00193     0.80554
    H 25    0.19378      0.00000     0.80425    0.00197     0.80622
    H 26    0.19166      0.00000     0.80639    0.00195     0.80834
    H 27    0.20061      0.00000     0.79781    0.00158     0.79939
    H 28    0.20056      0.00000     0.79791    0.00152     0.79944
    H 29    0.19352      0.00000     0.80465    0.00182     0.80648
    H 30    0.20069      0.00000     0.79817    0.00115     0.79931
    H 31    0.19988      0.00000     0.79879    0.00132     0.80012
    H 32    0.20972      0.00000     0.78933    0.00095     0.79028
 ====================================================================
 * Total *  0.00000     23.99992    71.78134    0.21874    96.00000

 1\1\GINC-NOTCH075\SP\RM062X\def2TZVP\C10H20O2\U6032257\03-Feb-2022\0\\
 # M062X/def2tzvp int=(grid=ultrafine) pop=nbo7 polar prop=efg volume g
 uess=read geom=check\\Ac1.xyz\\0,1\O,0,5.376897568,0.0122306671,0.9452
 819362\C,0,5.3251728379,-0.3725176198,-0.3570900007\C,0,4.652402445,-1
 .7131849154,-0.5164215\C,0,3.1439860055,-1.6332880001,-0.2145257708\C,
 0,2.4345433078,-2.990112452,-0.3226797199\C,0,2.538447531,-3.678773174
 6,-1.6913035697\C,0,1.9905640056,-2.8512782099,-2.8578183297\C,0,2.011
 9348293,-3.6054662872,-4.1901697321\C,0,1.4741790768,-2.7743442159,-5.

 Normal termination of Gaussian 16 at Thu Feb  3 10:41:31 2022.
 Gaussian 16:  ES64L-G16RevC.01  3-Jul-2019

 --------------------------------------------------------------------
 # M062X/def2tzvp int=(grid=ultrafine) nmr=giao guess=read geom=check
 --------------------------------------------------------------------

 -------
 Ac1.xyz
 -------
 Structure from the checkpoint file:  "Ac1_clust-38.chk"
 Charge =  0 Multiplicity = 1

                         Standard orientation:
 ---------------------------------------------------------------------
 Center     Atomic      Atomic             Coordinates (Angstroms)
 Number     Number       Type             X           Y           Z
 ---------------------------------------------------------------------
      1          8           0       -4.767687   -0.389417    0.144082
      2          6           0       -3.575088   -0.953196   -0.182630
      3          6           0       -2.566434    0.083642   -0.610390
      4          6           0       -2.116899    0.963077    0.571709
      5          6           0       -1.123520    2.059847    0.163945
      6          6           0        0.174655    1.561497   -0.487644
      7          6           0        0.986095    0.594874    0.380046
      8          6           0        2.323131    0.199247   -0.252591
      9          6           0        3.130237   -0.776153    0.609935
     10          6           0        4.444639   -1.247530   -0.027293
     11          6           0        5.470161   -0.130651   -0.243363
     12          8           0       -3.380406   -2.145799   -0.100433
     13          1           0       -5.337620   -1.122155    0.432134
     14          1           0       -3.015095    0.715885   -1.385274
     15          1           0       -1.721785   -0.452811   -1.045714
     16          1           0       -3.000867    1.426249    1.021685
     17          1           0       -1.674232    0.321610    1.342284
     18          1           0       -1.624200    2.753994   -0.523758
     19          1           0       -0.871388    2.643472    1.058756
     20          1           0       -0.048991    1.081604   -1.449573
     21          1           0        0.796984    2.432676   -0.729713
     22          1           0        1.169077    1.054358    1.361839
     23          1           0        0.402310   -0.314053    0.575260
     24          1           0        2.910080    1.106674   -0.443020
     25          1           0        2.138464   -0.256066   -1.236115
     26          1           0        3.346873   -0.306108    1.579824
     27          1           0        2.506024   -1.652425    0.829414
     28          1           0        4.888103   -2.021965    0.610730
     29          1           0        4.224977   -1.733443   -0.987539
     30          1           0        5.107679    0.623332   -0.948906
     31          1           0        5.697062    0.380599    0.699346
     32          1           0        6.409438   -0.527634   -0.641207
 ---------------------------------------------------------------------

 SCF Done:  E(RM062X) =  -543.541856186     A.U. after    1 cycles

      1  O    Isotropic =   103.6852   Anisotropy =   232.7539

      2  C    Isotropic =    -9.4844   Anisotropy =   127.3860

      3  C    Isotropic =   149.5268   Anisotropy =    37.4503

      4  C    Isotropic =   160.1226   Anisotropy =    20.1356

      5  C    Isotropic =   155.0486   Anisotropy =    11.5544

      6  C    Isotropic =   156.8850   Anisotropy =    30.0704

      7  C    Isotropic =   154.8355   Anisotropy =    28.9345

      8  C    Isotropic =   153.2666   Anisotropy =    29.2495

      9  C    Isotropic =   151.1100   Anisotropy =    26.0063

     10  C    Isotropic =   160.7569   Anisotropy =    17.6274

     11  C    Isotropic =   172.6007   Anisotropy =    21.5989

     12  O    Isotropic =  -169.9948   Anisotropy =   617.0791

     13  H    Isotropic =    25.8623   Anisotropy =    11.3761

     14  H    Isotropic =    29.9655   Anisotropy =     6.0818

     15  H    Isotropic =    29.6212   Anisotropy =     3.9511

     16  H    Isotropic =    30.0383   Anisotropy =     9.0472

     17  H    Isotropic =    30.2142   Anisotropy =     4.7699

     18  H    Isotropic =    30.4276   Anisotropy =     9.2715

     19  H    Isotropic =    30.3748   Anisotropy =     8.6637

     20  H    Isotropic =    30.6006   Anisotropy =     4.5744

     21  H    Isotropic =    30.5757   Anisotropy =     7.6054

     22  H    Isotropic =    31.0943   Anisotropy =     5.4102

     23  H    Isotropic =    30.4543   Anisotropy =     6.8350

     24  H    Isotropic =    30.4108   Anisotropy =     6.4313

     25  H    Isotropic =    31.0516   Anisotropy =     4.8971

     26  H    Isotropic =    30.7784   Anisotropy =     5.9087

     27  H    Isotropic =    30.3469   Anisotropy =     6.6306

     28  H    Isotropic =    30.3445   Anisotropy =     9.7314

     29  H    Isotropic =    30.6700   Anisotropy =     7.6508

     30  H    Isotropic =    30.7842   Anisotropy =     6.8064

     31  H    Isotropic =    31.3481   Anisotropy =     8.8168

     32  H    Isotropic =    30.8536   Anisotropy =    10.9891

 The electronic state is 1-A.
 Alpha  occ. eigenvalues --  -19.67448 -19.62024 -10.67843 -10.55316 -10.54491
 Alpha  occ. eigenvalues --  -10.53773 -10.53296 -10.53025 -10.52828 -10.52805
 Alpha  occ. eigenvalues --  -10.52682 -10.52088  -1.23440  -1.13897  -0.92365
 Alpha  occ. eigenvalues --   -0.90158  -0.86946  -0.82930  -0.78167  -0.73839
 Alpha  occ. eigenvalues --   -0.69894  -0.68417  -0.64791  -0.64244  -0.58455
 Alpha  occ. eigenvalues --   -0.57479  -0.55235  -0.53797  -0.53647  -0.51935
 Alpha  occ. eigenvalues --   -0.50931  -0.49582  -0.48059  -0.46892  -0.46365
 Alpha  occ. eigenvalues --   -0.45750  -0.43555  -0.42867  -0.42410  -0.40686
 Alpha  occ. eigenvalues --   -0.40298  -0.39717  -0.38800  -0.38407  -0.37916
 Alpha  occ. eigenvalues --   -0.37557  -0.35963  -0.35331
 Alpha virt. eigenvalues --    0.04353   0.05595   0.06896   0.07679   0.08061
 Alpha virt. eigenvalues --    0.08561   0.09520   0.10859   0.11033   0.12595
 Alpha virt. eigenvalues --    0.13476   0.13957   0.14078   0.14651   0.15173

 Mulliken charges:
               1
     1  O   -0.412332
     2  C    0.339035
     3  C   -0.288612
     4  C   -0.345240
     5  C   -0.277249
     6  C   -0.320690
     7  C   -0.301568
     8  C   -0.296353
     9  C   -0.271442
    10  C   -0.241950
    11  C   -0.444671
    12  O   -0.331965
    13  H    0.336324
    14  H    0.166375
    15  H    0.162006
    16  H    0.170490
    17  H    0.174497
    18  H    0.154529
    19  H    0.153555
    20  H    0.161484
    21  H    0.151415
    22  H    0.146392
    23  H    0.151239
    24  H    0.144307
    25  H    0.141137
    26  H    0.144237
    27  H    0.141962
    28  H    0.136055
    29  H    0.135647
    30  H    0.141115
    31  H    0.137203
    32  H    0.143069
 Sum of Mulliken charges =  -0.00000

 Dipole moment (field-independent basis, Debye):
    X=              0.0374    Y=              1.8375    Z=              0.1320  Tot=              1.8426
 Quadrupole moment (field-independent basis, Debye-Ang):
   XX=            -73.0896   YY=            -83.3062   ZZ=            -76.4633
   XY=             -3.0926   XZ=             -1.0224   YZ=             -0.6153

 1\1\GINC-NOTCH075\SP\RM062X\def2TZVP\C10H20O2\U6032257\03-Feb-2022\0\\
 # M062X/def2tzvp int=(grid=ultrafine) nmr=giao guess=read geom=check\\
 Ac1.xyz\\0,1\O,0,5.376897568,0.0122306671,0.9452819362\C,0,5.325172837
 9,-0.3725176198,-0.3570900007\C,0,4.652402445,-1.7131849154,-0.5164215
 \C,0,3.1439860055,-1.6332880001,-0.2145257708\C,0,2.4345433078,-2.9901
 12452,-0.3226797199\C,0,2.538447531,-3.6787731746,-1.6913035697\C,0,1.
 9905640056,-2.8512782099,-2.8578183297\C,0,2.0119348293,-3.6054662872,
 -4.1901697321\C,0,1.4741790768,-2.7743442159,-5.3592854143\C,0,1.54668

 Normal termination of Gaussian 16 at Thu Feb  3 10:42:49 2022.
