 Gaussian 16, Revision C.01,

 ----------------------------------------------------------------------
 # B3LYP/6-31G(d,p) empiricaldispersion=GD3BJ int=(grid=ultrafine) opt
 freq=noraman
 ----------------------------------------------------------------------

 -------
 Ac1.xyz
 -------
 Symbolic Z-matrix:
 Charge =  0 Multiplicity = 1

 SCF Done:  E(RB3LYP) =  -543.667774150     A.U. after   13 cycles
 SCF Done:  E(RB3LYP) =  -543.670017085     A.U. after   12 cycles
 SCF Done:  E(RB3LYP) =  -543.670065686     A.U. after   11 cycles
 SCF Done:  E(RB3LYP) =  -543.670012264     A.U. after   10 cycles
 SCF Done:  E(RB3LYP) =  -543.670157495     A.U. after   10 cycles
 SCF Done:  E(RB3LYP) =  -543.670166643     A.U. after    9 cycles
 SCF Done:  E(RB3LYP) =  -543.670167151     A.U. after    8 cycles
 SCF Done:  E(RB3LYP) =  -543.670167452     A.U. after    7 cycles
 SCF Done:  E(RB3LYP) =  -543.670167536     A.U. after    7 cycles
 Optimization completed.
    -- Stationary point found.
 Normal termination of Gaussian 16 at Thu Feb  3 10:44:21 2022.

 ----------------------------------------------------------------------
 #N Geom=AllCheck Guess=TCheck SCRF=Check GenChk RB3LYP/6-31G(d,p) Freq
 ----------------------------------------------------------------------

 Structure from the checkpoint file:  "Ac1_clust-39.chk"
 -------
 Ac1.xyz
 -------
 Charge =  0 Multiplicity = 1

 SCF Done:  E(RB3LYP) =  -543.670167536     A.U. after    1 cycles

                      1                      2                      3
                      A                      A                      A
 Frequencies --     28.6910                33.2940                36.9494
 Red. masses --      3.5791                 5.9262                 2.0956
 Frc consts  --      0.0017                 0.0039                 0.0017
 IR Inten    --      0.1864                 0.6662                 0.3534

                      4                      5                      6
                      A                      A                      A
 Frequencies --     59.1424                76.3755                97.9921
 Red. masses --      3.7450                 3.3697                 1.6377
 Frc consts  --      0.0077                 0.0116                 0.0093
 IR Inten    --      0.3723                 0.2456                 0.0367

                      7                      8                      9
                      A                      A                      A
 Frequencies --    121.7499               152.2230               159.1667
 Red. masses --      3.0663                 1.7510                 2.4700
 Frc consts  --      0.0268                 0.0239                 0.0369
 IR Inten    --      0.4705                 0.0117                 0.0655

                     10                     11                     12
                      A                      A                      A
 Frequencies --    168.8514               223.6304               250.8585
 Red. masses --      2.6334                 2.9183                 1.1224
 Frc consts  --      0.0442                 0.0860                 0.0416
 IR Inten    --      0.1837                 0.1799                 0.0171

                     13                     14                     15
                      A                      A                      A
 Frequencies --    261.7260               294.1958               364.1546
 Red. masses --      3.4388                 2.8904                 3.2867
 Frc consts  --      0.1388                 0.1474                 0.2568
 IR Inten    --      2.3169                 0.2909                 2.0380

                     16                     17                     18
                      A                      A                      A
 Frequencies --    443.2290               475.6879               521.2591
 Red. masses --      3.0592                 2.9715                 1.7986
 Frc consts  --      0.3541                 0.3962                 0.2879
 IR Inten    --      2.9664                 2.9279                21.6540

                     19                     20                     21
                      A                      A                      A
 Frequencies --    537.3389               621.6430               680.3333
 Red. masses --      3.2011                 3.1479                 1.3964
 Frc consts  --      0.5446                 0.7167                 0.3808
 IR Inten    --     19.9549                12.1037                98.7107

                     22                     23                     24
                      A                      A                      A
 Frequencies --    737.3419               740.0539               754.6756
 Red. masses --      1.0594                 1.0975                 1.1927
 Frc consts  --      0.3394                 0.3541                 0.4002
 IR Inten    --      5.7493                 2.8799                 6.8823

                     25                     26                     27
                      A                      A                      A
 Frequencies --    790.7190               834.8393               877.3038
 Red. masses --      1.3924                 1.7271                 1.9452
 Frc consts  --      0.5129                 0.7092                 0.8821
 IR Inten    --      3.9485                 4.3893                 6.8219

                     28                     29                     30
                      A                      A                      A
 Frequencies --    895.0716               904.1361               960.5197
 Red. masses --      1.5685                 1.9219                 1.3105
 Frc consts  --      0.7404                 0.9256                 0.7124
 IR Inten    --      3.1943                 1.7509                 0.6432

                     31                     32                     33
                      A                      A                      A
 Frequencies --   1007.1798              1011.0386              1035.1445
 Red. masses --      2.9176                 3.1054                 1.3732
 Frc consts  --      1.7438                 1.8703                 0.8670
 IR Inten    --      0.1131                 0.8208                 1.0313

                     34                     35                     36
                      A                      A                      A
 Frequencies --   1050.9086              1066.6841              1076.1588
 Red. masses --      2.5006                 2.1643                 2.1250
 Frc consts  --      1.6271                 1.4509                 1.4500
 IR Inten    --      0.8325                 0.3470                 0.0860

                     37                     38                     39
                      A                      A                      A
 Frequencies --   1079.7637              1086.5968              1125.9398
 Red. masses --      2.1340                 2.4497                 1.7595
 Frc consts  --      1.4659                 1.7041                 1.3142
 IR Inten    --      0.2294                 1.9087               138.7172

                     40                     41                     42
                      A                      A                      A
 Frequencies --   1144.8514              1188.1338              1217.5898
 Red. masses --      2.4831                 2.1966                 1.5022
 Frc consts  --      1.9176                 1.8269                 1.3122
 IR Inten    --      3.5304               181.4591                 0.1586

                     43                     44                     45
                      A                      A                      A
 Frequencies --   1227.5485              1255.5269              1269.3084
 Red. masses --      1.4953                 1.3346                 1.3863
 Frc consts  --      1.3276                 1.2395                 1.3160
 IR Inten    --      7.4638                 5.1899                 2.4500

                     46                     47                     48
                      A                      A                      A
 Frequencies --   1298.6071              1305.1316              1322.1294
 Red. masses --      1.2979                 1.3193                 1.3946
 Frc consts  --      1.2895                 1.3240                 1.4364
 IR Inten    --      0.1792                 0.6244                 5.1626

                     49                     50                     51
                      A                      A                      A
 Frequencies --   1332.5620              1336.1376              1343.6123
 Red. masses --      1.0319                 1.1958                 1.2622
 Frc consts  --      1.0796                 1.2578                 1.3425
 IR Inten    --      0.3111                 8.4343                 0.4493

                     52                     53                     54
                      A                      A                      A
 Frequencies --   1345.0996              1349.5576              1382.9053
 Red. masses --      1.1084                 1.1322                 1.4199
 Frc consts  --      1.1816                 1.2149                 1.5999
 IR Inten    --      0.3084                 3.4665                 1.1383

                     55                     56                     57
                      A                      A                      A
 Frequencies --   1410.7054              1419.6273              1422.8955
 Red. masses --      1.5250                 1.6748                 1.6762
 Frc consts  --      1.7881                 1.9886                 1.9995
 IR Inten    --      0.7622                 0.8163                 7.2435

                     58                     59                     60
                      A                      A                      A
 Frequencies --   1426.8540              1428.1611              1470.9804
 Red. masses --      2.0770                 1.2764                 1.0980
 Frc consts  --      2.4914                 1.5339                 1.3998
 IR Inten    --     50.2849                 0.8818                15.6565

                     61                     62                     63
                      A                      A                      A
 Frequencies --   1494.4344              1498.6262              1499.8185
 Red. masses --      1.0828                 1.0743                 1.0767
 Frc consts  --      1.4249                 1.4216                 1.4269
 IR Inten    --      3.8088                 0.4144                 0.7707

                     64                     65                     66
                      A                      A                      A
 Frequencies --   1502.6513              1507.9300              1514.1894
 Red. masses --      1.0697                 1.0799                 1.0401
 Frc consts  --      1.4230                 1.4468                 1.4051
 IR Inten    --      0.0192                 0.3525                 5.4195

                     67                     68                     69
                      A                      A                      A
 Frequencies --   1516.2137              1523.7555              1528.8347
 Red. masses --      1.0858                 1.0903                 1.0956
 Frc consts  --      1.4707                 1.4915                 1.5088
 IR Inten    --      0.8836                 0.3370                 4.0694

                     70                     71                     72
                      A                      A                      A
 Frequencies --   1841.8679              3009.4266              3010.7914
 Red. masses --      9.6095                 1.0584                 1.0589
 Frc consts  --     19.2074                 5.6475                 5.6554
 IR Inten    --    233.0991                 1.3443                 0.5399

                     73                     74                     75
                      A                      A                      A
 Frequencies --   3012.9300              3016.6492              3022.1385
 Red. masses --      1.0595                 1.0644                 1.0640
 Frc consts  --      5.6665                 5.7071                 5.7257
 IR Inten    --      1.2211                 2.4324                25.8363

                     76                     77                     78
                      A                      A                      A
 Frequencies --   3027.3897              3033.4447              3037.6308
 Red. masses --      1.0615                 1.0980                 1.0362
 Frc consts  --      5.7320                 5.9531                 5.6332
 IR Inten    --    118.8842                 4.1060                43.8741

                     79                     80                     81
                      A                      A                      A
 Frequencies --   3038.2766              3041.5690              3048.1721
 Red. masses --      1.0979                 1.0661                 1.0988
 Frc consts  --      5.9712                 5.8110                 6.0153
 IR Inten    --      3.2914                31.8766                 5.3802

                     82                     83                     84
                      A                      A                      A
 Frequencies --   3050.5103              3061.3593              3072.7156
 Red. masses --      1.0648                 1.1031                 1.1021
 Frc consts  --      5.8378                 6.0912                 6.1306
 IR Inten    --     21.0892                 2.2432                65.0899

                     85                     86                     87
                      A                      A                      A
 Frequencies --   3078.2332              3087.2875              3100.5622
 Red. masses --      1.1002                 1.0990                 1.1023
 Frc consts  --      6.1423                 6.1716                 6.2434
 IR Inten    --     42.2661                24.7786                57.7112

                     88                     89                     90
                      A                      A                      A
 Frequencies --   3105.9475              3111.5404              3751.3584
 Red. masses --      1.1028                 1.1020                 1.0641
 Frc consts  --      6.2679                 6.2859                 8.8225
 IR Inten    --     68.8045                43.3389                46.2430

 - Thermochemistry -
 -------------------
 Temperature   298.150 Kelvin.  Pressure   1.00000 Atm.
 Atom     1 has atomic number  8 and mass  15.99491

 Molecular mass:   172.14633 amu.
 Principal axes and moments of inertia in atomic units:
                           1         2         3
     Eigenvalues --   596.117689229.015219476.74189
           X            0.99996  -0.00890   0.00084
           Y            0.00886   0.99921   0.03873
           Z           -0.00118  -0.03872   0.99925
 This molecule is an asymmetric top.
 Rotational symmetry number  1.
 Warning -- assumption of classical behavior for rotation
           may cause significant error
 Rotational temperatures (Kelvin)      0.14530     0.00938     0.00914
 Rotational constants (GHZ):           3.02749     0.19555     0.19044
 Zero-point vibrational energy     763736.4 (Joules/Mol)
                                  182.53737 (Kcal/Mol)
 Warning -- explicit consideration of  19 degrees of freedom as
           vibrations may cause significant error
 Vibrational temperatures:     41.28    47.90    53.16    85.09   109.89
          (Kelvin)            140.99   175.17   219.01   229.01   242.94
                              321.75   360.93   376.57   423.28   523.94
                              637.71   684.41   749.98   773.11   894.41
                              978.85  1060.87  1064.77  1085.81  1137.67
                             1201.15  1262.24  1287.81  1300.85  1381.97
                             1449.11  1454.66  1489.34  1512.02  1534.72
                             1548.35  1553.54  1563.37  1619.98  1647.19
                             1709.46  1751.84  1766.17  1806.42  1826.25
                             1868.41  1877.79  1902.25  1917.26  1922.40
                             1933.16  1935.30  1941.71  1989.69  2029.69
                             2042.53  2047.23  2052.92  2054.81  2116.41
                             2150.16  2156.19  2157.90  2161.98  2169.57
                             2178.58  2181.49  2192.34  2199.65  2650.04
                             4329.89  4331.86  4334.93  4340.29  4348.18
                             4355.74  4364.45  4370.47  4371.40  4376.14
                             4385.64  4389.00  4404.61  4420.95  4428.89
                             4441.92  4461.02  4468.77  4476.81  5397.37

 Zero-point correction=                           0.290892 (Hartree/Particle)
 Thermal correction to Energy=                    0.305866
 Thermal correction to Enthalpy=                  0.306811
 Thermal correction to Gibbs Free Energy=         0.246161
 Sum of electronic and zero-point Energies=           -543.379276
 Sum of electronic and thermal Energies=              -543.364301
 Sum of electronic and thermal Enthalpies=            -543.363357
 Sum of electronic and thermal Free Energies=         -543.424007

                     E (Thermal)             CV                S
                      KCal/Mol        Cal/Mol-Kelvin    Cal/Mol-Kelvin
 Total                  191.934             52.779            127.649
 Electronic               0.000              0.000              0.000
 Translational            0.889              2.981             41.337
 Rotational               0.889              2.981             32.322
 Vibrational            190.157             46.817             53.989
 Vibration     1          0.593              1.984              5.918
 Vibration     2          0.594              1.983              5.623
 Vibration     3          0.594              1.982              5.416
 Vibration     4          0.597              1.974              4.486
 Vibration     5          0.599              1.965              3.982
 Vibration     6          0.603              1.951              3.494
 Vibration     7          0.609              1.931              3.072
 Vibration     8          0.619              1.900              2.644
 Vibration     9          0.621              1.892              2.560
 Vibration    10          0.625              1.881              2.448
 Vibration    11          0.649              1.805              1.930
 Vibration    12          0.663              1.761              1.725
 Vibration    13          0.669              1.743              1.650
 Vibration    14          0.689              1.685              1.450
 Vibration    15          0.738              1.546              1.104
 Vibration    16          0.803              1.376              0.817
 Vibration    17          0.832              1.304              0.722
 Vibration    18          0.876              1.203              0.607
 Vibration    19          0.892              1.167              0.571

 Optimization completed.
    -- Stationary point found.
 Normal termination of Gaussian 16 at Thu Feb  3 10:45:34 2022.

 ----------------------------------------------------------------------
 # M062X/def2tzvp int=(grid=ultrafine) pop=nbo7 polar prop=efg volume g
 uess=read geom=check
 ----------------------------------------------------------------------

 -------
 Ac1.xyz
 -------
 Structure from the checkpoint file:  "Ac1_clust-39.chk"
 Charge =  0 Multiplicity = 1

 SCF Done:  E(RM062X) =  -543.545184698     A.U. after   11 cycles

  Exact polarizability:     159.206      -0.816     114.543       4.226      -0.037     108.756
 Approx polarizability:     144.531       0.554     144.484       5.821      -3.624     145.444

 Summary of Natural Population Analysis:

                                     Natural Population
             Natural    ---------------------------------------------
  Atom No    Charge        Core      Valence    Rydberg      Total
 --------------------------------------------------------------------
    O  1   -0.68708      2.00000     6.66512    0.02197     8.68708
    C  2    0.79725      1.99999     3.16593    0.03683     5.20275
    C  3   -0.51149      1.99999     4.49870    0.01279     6.51149
    C  4   -0.39030      1.99999     4.37823    0.01208     6.39030
    C  5   -0.39486      1.99999     4.38369    0.01118     6.39486
    C  6   -0.38535      1.99999     4.37447    0.01089     6.38535
    C  7   -0.38559      1.99999     4.37475    0.01085     6.38559
    C  8   -0.38620      1.99999     4.37531    0.01090     6.38620
    C  9   -0.38800      1.99999     4.37680    0.01120     6.38800
    C 10   -0.38979      1.99999     4.37965    0.01014     6.38979
    C 11   -0.60093      1.99999     4.59244    0.00850     6.60093
    O 12   -0.60199      2.00000     6.57559    0.02640     8.60199
    H 13    0.49270      0.00000     0.50390    0.00341     0.50730
    H 14    0.24106      0.00000     0.75776    0.00117     0.75894
    H 15    0.23078      0.00000     0.76769    0.00154     0.76922
    H 16    0.20287      0.00000     0.79552    0.00161     0.79713
    H 17    0.21567      0.00000     0.78249    0.00184     0.78433
    H 18    0.21042      0.00000     0.78762    0.00196     0.78958
    H 19    0.18980      0.00000     0.80829    0.00191     0.81020
    H 20    0.19111      0.00000     0.80696    0.00193     0.80889
    H 21    0.19675      0.00000     0.80136    0.00188     0.80325
    H 22    0.19537      0.00000     0.80275    0.00187     0.80463
    H 23    0.19205      0.00000     0.80606    0.00190     0.80795
    H 24    0.19372      0.00000     0.80436    0.00192     0.80628
    H 25    0.19230      0.00000     0.80577    0.00193     0.80770
    H 26    0.19289      0.00000     0.80517    0.00194     0.80711
    H 27    0.19196      0.00000     0.80609    0.00195     0.80804
    H 28    0.19314      0.00000     0.80506    0.00180     0.80686
    H 29    0.19369      0.00000     0.80451    0.00180     0.80631
    H 30    0.20035      0.00000     0.79838    0.00127     0.79965
    H 31    0.19997      0.00000     0.79876    0.00127     0.80003
    H 32    0.20773      0.00000     0.79131    0.00096     0.79227
 ====================================================================
 * Total *  0.00000     23.99992    71.78049    0.21959    96.00000

 1\1\GINC-NOTCH075\SP\RM062X\def2TZVP\C10H20O2\U6032257\03-Feb-2022\0\\
 # M062X/def2tzvp int=(grid=ultrafine) pop=nbo7 polar prop=efg volume g
 uess=read geom=check\\Ac1.xyz\\0,1\O,0,6.3427918847,-0.0983182137,1.07
 06420121\C,0,5.1303241723,-0.2160739781,0.4740516763\C,0,4.3819280986,
 -1.4324691876,0.9720201929\C,0,3.1427694829,-1.7586379288,0.137853144\
 C,0,3.4734939734,-2.2748863242,-1.2654792232\C,0,2.226771552,-2.599110
 5806,-2.0915063771\C,0,2.5487540014,-3.1163971976,-3.4957059324\C,0,1.
 3036773315,-3.4352808792,-4.3271309165\C,0,1.6250794584,-3.9521152429,

 Normal termination of Gaussian 16 at Thu Feb  3 10:48:19 2022.
 Gaussian 16:  ES64L-G16RevC.01  3-Jul-2019

 --------------------------------------------------------------------
 # M062X/def2tzvp int=(grid=ultrafine) nmr=giao guess=read geom=check
 --------------------------------------------------------------------

 -------
 Ac1.xyz
 -------
 Structure from the checkpoint file:  "Ac1_clust-39.chk"
 Charge =  0 Multiplicity = 1

                         Standard orientation:
 ---------------------------------------------------------------------
 Center     Atomic      Atomic             Coordinates (Angstroms)
 Number     Number       Type             X           Y           Z
 ---------------------------------------------------------------------
      1          8           0       -5.279289   -0.978365   -0.591562
      2          6           0       -4.211222   -0.533468    0.116366
      3          6           0       -3.755004    0.826819   -0.362354
      4          6           0       -2.400591    1.242855    0.212289
      5          6           0       -1.229642    0.422811   -0.336926
      6          6           0        0.120975    0.847628    0.243698
      7          6           0        1.297002    0.032996   -0.300703
      8          6           0        2.648887    0.450885    0.283203
      9          6           0        3.825212   -0.363780   -0.260467
     10          6           0        5.177951    0.053087    0.323638
     11          6           0        6.346852   -0.767004   -0.225930
     12          8           0       -3.727992   -1.170564    1.026951
     13          1           0       -5.518137   -1.836856   -0.202929
     14          1           0       -4.540858    1.538221   -0.077432
     15          1           0       -3.745092    0.818565   -1.458296
     16          1           0       -2.238993    2.305140   -0.007230
     17          1           0       -2.434362    1.143425    1.302735
     18          1           0       -1.401389   -0.637134   -0.117196
     19          1           0       -1.201561    0.517493   -1.431969
     20          1           0        0.290203    1.913829    0.036155
     21          1           0        0.088961    0.752175    1.337751
     22          1           0        1.125377   -1.032452   -0.093979
     23          1           0        1.329281    0.127766   -1.395271
     24          1           0        2.616203    0.355629    1.377582
     25          1           0        2.819629    1.517021    0.077453
     26          1           0        3.654877   -1.430012   -0.054856
     27          1           0        3.858518   -0.268931   -1.355104
     28          1           0        5.346862    1.118583    0.117741
     29          1           0        5.143317   -0.042350    1.417156
     30          1           0        6.218579   -1.832650   -0.005280
     31          1           0        6.423599   -0.663524   -1.314143
     32          1           0        7.300720   -0.449485    0.207116
 ---------------------------------------------------------------------

 SCF Done:  E(RM062X) =  -543.545184698     A.U. after    1 cycles

      1  O    Isotropic =   102.0435   Anisotropy =   243.5094

      2  C    Isotropic =    -9.3042   Anisotropy =   123.9609

      3  C    Isotropic =   150.1283   Anisotropy =    35.7373

      4  C    Isotropic =   158.7935   Anisotropy =    23.6719

      5  C    Isotropic =   152.6448   Anisotropy =    35.6150

      6  C    Isotropic =   150.3844   Anisotropy =    37.6187

      7  C    Isotropic =   150.1620   Anisotropy =    37.7989

      8  C    Isotropic =   149.9266   Anisotropy =    37.6885

      9  C    Isotropic =   148.3781   Anisotropy =    39.8401

     10  C    Isotropic =   158.5277   Anisotropy =    23.9946

     11  C    Isotropic =   170.0884   Anisotropy =    28.1020

     12  O    Isotropic =  -161.0748   Anisotropy =   654.7321

     13  H    Isotropic =    25.7167   Anisotropy =    11.4756

     14  H    Isotropic =    29.5179   Anisotropy =     8.6122

     15  H    Isotropic =    29.6545   Anisotropy =     6.2166

     16  H    Isotropic =    30.7015   Anisotropy =     7.5469

     17  H    Isotropic =    30.0893   Anisotropy =     5.9607

     18  H    Isotropic =    30.2604   Anisotropy =     6.0712

     19  H    Isotropic =    31.0644   Anisotropy =     5.3024

     20  H    Isotropic =    30.7577   Anisotropy =     4.6664

     21  H    Isotropic =    30.6228   Anisotropy =     4.4885

     22  H    Isotropic =    30.6690   Anisotropy =     4.3535

     23  H    Isotropic =    30.7521   Anisotropy =     4.5105

     24  H    Isotropic =    30.6716   Anisotropy =     4.5415

     25  H    Isotropic =    30.7164   Anisotropy =     4.5782

     26  H    Isotropic =    30.7170   Anisotropy =     4.6063

     27  H    Isotropic =    30.7512   Anisotropy =     4.6568

     28  H    Isotropic =    30.6451   Anisotropy =     6.6135

     29  H    Isotropic =    30.6202   Anisotropy =     6.6129

     30  H    Isotropic =    31.0284   Anisotropy =     8.4907

     31  H    Isotropic =    31.0442   Anisotropy =     8.4991

     32  H    Isotropic =    30.7642   Anisotropy =    10.9467

 The electronic state is 1-A.
 Alpha  occ. eigenvalues --  -19.67579 -19.62241 -10.68062 -10.55566 -10.53726
 Alpha  occ. eigenvalues --  -10.52782 -10.52658 -10.52654 -10.52541 -10.52498
 Alpha  occ. eigenvalues --  -10.52455 -10.51981  -1.23657  -1.14114  -0.91715
 Alpha  occ. eigenvalues --   -0.90010  -0.87009  -0.82916  -0.78126  -0.73301
 Alpha  occ. eigenvalues --   -0.68980  -0.65800  -0.65676  -0.65061  -0.58757
 Alpha  occ. eigenvalues --   -0.57797  -0.55715  -0.55292  -0.53039  -0.50263
 Alpha  occ. eigenvalues --   -0.49950  -0.49340  -0.47712  -0.47070  -0.46730
 Alpha  occ. eigenvalues --   -0.44761  -0.43601  -0.41632  -0.41292  -0.40563
 Alpha  occ. eigenvalues --   -0.40319  -0.39055  -0.38967  -0.38012  -0.37935
 Alpha  occ. eigenvalues --   -0.37676  -0.35949  -0.35441
 Alpha virt. eigenvalues --    0.04263   0.06162   0.06696   0.07615   0.08489
 Alpha virt. eigenvalues --    0.09261   0.09876   0.10504   0.11336   0.12046
 Alpha virt. eigenvalues --    0.13496   0.14249   0.14922   0.15175   0.15562

 Mulliken charges:
               1
     1  O   -0.409103
     2  C    0.343394
     3  C   -0.329107
     4  C   -0.259266
     5  C   -0.307558
     6  C   -0.284137
     7  C   -0.279615
     8  C   -0.277719
     9  C   -0.276703
    10  C   -0.236839
    11  C   -0.427220
    12  O   -0.338477
    13  H    0.334438
    14  H    0.175942
    15  H    0.173826
    16  H    0.145305
    17  H    0.165251
    18  H    0.167370
    19  H    0.135834
    20  H    0.138132
    21  H    0.145650
    22  H    0.143952
    23  H    0.138235
    24  H    0.139706
    25  H    0.137396
    26  H    0.135872
    27  H    0.134209
    28  H    0.128812
    29  H    0.129783
    30  H    0.136162
    31  H    0.135431
    32  H    0.141045
 Sum of Mulliken charges =  -0.00000

 Dipole moment (field-independent basis, Debye):
    X=             -0.5283    Y=              0.8612    Z=             -1.0356  Tot=              1.4468
 Quadrupole moment (field-independent basis, Debye-Ang):
   XX=            -73.1651   YY=            -75.1793   ZZ=            -80.1363
   XY=              0.1541   XZ=              2.6097   YZ=              0.9027

 1\1\GINC-NOTCH075\SP\RM062X\def2TZVP\C10H20O2\U6032257\03-Feb-2022\0\\
 # M062X/def2tzvp int=(grid=ultrafine) nmr=giao guess=read geom=check\\
 Ac1.xyz\\0,1\O,0,6.3427918847,-0.0983182137,1.0706420121\C,0,5.1303241
 723,-0.2160739781,0.4740516763\C,0,4.3819280986,-1.4324691876,0.972020
 1929\C,0,3.1427694829,-1.7586379288,0.137853144\C,0,3.4734939734,-2.27
 48863242,-1.2654792232\C,0,2.226771552,-2.5991105806,-2.0915063771\C,0
 ,2.5487540014,-3.1163971976,-3.4957059324\C,0,1.3036773315,-3.43528087
 92,-4.3271309165\C,0,1.6250794584,-3.9521152429,-5.7316168725\C,0,0.38

 Normal termination of Gaussian 16 at Thu Feb  3 10:49:30 2022.
