 Gaussian 16, Revision C.01,

 ----------------------------------------------------------------------
 # B3LYP/6-31G(d,p) empiricaldispersion=GD3BJ int=(grid=ultrafine) opt
 freq=noraman
 ----------------------------------------------------------------------

 -------
 Ac1.xyz
 -------
 Symbolic Z-matrix:
 Charge =  0 Multiplicity = 1

 SCF Done:  E(RB3LYP) =  -543.663651699     A.U. after   13 cycles
 SCF Done:  E(RB3LYP) =  -543.665756046     A.U. after   11 cycles
 SCF Done:  E(RB3LYP) =  -543.665588043     A.U. after   11 cycles
 SCF Done:  E(RB3LYP) =  -543.665937234     A.U. after   10 cycles
 SCF Done:  E(RB3LYP) =  -543.665931546     A.U. after   10 cycles
 SCF Done:  E(RB3LYP) =  -543.665990116     A.U. after   10 cycles
 SCF Done:  E(RB3LYP) =  -543.665992647     A.U. after    9 cycles
 SCF Done:  E(RB3LYP) =  -543.665994869     A.U. after    9 cycles
 SCF Done:  E(RB3LYP) =  -543.665996763     A.U. after    9 cycles
 SCF Done:  E(RB3LYP) =  -543.665997150     A.U. after    8 cycles
 SCF Done:  E(RB3LYP) =  -543.665997283     A.U. after    7 cycles
 SCF Done:  E(RB3LYP) =  -543.665997302     A.U. after    6 cycles
 Optimization completed.
    -- Stationary point found.
 Normal termination of Gaussian 16 at Thu Feb  3 08:19:59 2022.

 ----------------------------------------------------------------------
 #N Geom=AllCheck Guess=TCheck SCRF=Check GenChk RB3LYP/6-31G(d,p) Freq
 ----------------------------------------------------------------------

 Structure from the checkpoint file:  "Ac1_clust-22.chk"
 -------
 Ac1.xyz
 -------
 Charge =  0 Multiplicity = 1

 SCF Done:  E(RB3LYP) =  -543.665997302     A.U. after    1 cycles

                      1                      2                      3
                      A                      A                      A
 Frequencies --     22.4843                26.8423                33.5678
 Red. masses --      9.0870                 3.3052                 2.0240
 Frc consts  --      0.0027                 0.0014                 0.0013
 IR Inten    --      1.1381                 0.1319                 0.0213

                      4                      5                      6
                      A                      A                      A
 Frequencies --     74.9118                89.0587                94.6829
 Red. masses --      2.6104                 2.3071                 3.0334
 Frc consts  --      0.0086                 0.0108                 0.0160
 IR Inten    --      0.0340                 0.0627                 0.1317

                      7                      8                      9
                      A                      A                      A
 Frequencies --    110.1794               134.5919               154.6030
 Red. masses --      2.1251                 2.1093                 2.1268
 Frc consts  --      0.0152                 0.0225                 0.0300
 IR Inten    --      0.2591                 0.3997                 0.1091

                     10                     11                     12
                      A                      A                      A
 Frequencies --    169.7238               235.4559               251.2379
 Red. masses --      3.7283                 3.0975                 1.1254
 Frc consts  --      0.0633                 0.1012                 0.0419
 IR Inten    --      1.5559                 0.3516                 0.0069

                     13                     14                     15
                      A                      A                      A
 Frequencies --    268.9205               303.1897               422.2345
 Red. masses --      2.0820                 3.9802                 2.6368
 Frc consts  --      0.0887                 0.2156                 0.2770
 IR Inten    --      0.1077                 1.0846                 0.0942

                     16                     17                     18
                      A                      A                      A
 Frequencies --    433.0379               444.9554               498.9318
 Red. masses --      2.6914                 4.5160                 2.3992
 Frc consts  --      0.2974                 0.5268                 0.3519
 IR Inten    --      3.6545                10.7100                 0.5564

                     19                     20                     21
                      A                      A                      A
 Frequencies --    528.0760               632.5149               674.4887
 Red. masses --      1.5778                 4.0237                 1.3314
 Frc consts  --      0.2592                 0.9484                 0.3569
 IR Inten    --     21.5085                37.8783                89.5705

                     22                     23                     24
                      A                      A                      A
 Frequencies --    733.5204               742.1992               770.9117
 Red. masses --      1.0800                 1.1052                 1.3450
 Frc consts  --      0.3424                 0.3587                 0.4709
 IR Inten    --      4.1219                 1.6961                10.1772

                     25                     26                     27
                      A                      A                      A
 Frequencies --    798.7017               827.2906               877.2027
 Red. masses --      1.3449                 1.8537                 1.8572
 Frc consts  --      0.5055                 0.7475                 0.8420
 IR Inten    --      4.6930                 6.0126                 1.2809

                     28                     29                     30
                      A                      A                      A
 Frequencies --    901.0718               912.3148               940.7087
 Red. masses --      1.8064                 1.8322                 2.2521
 Frc consts  --      0.8641                 0.8985                 1.1742
 IR Inten    --      1.1874                 1.2983                 2.1689

                     31                     32                     33
                      A                      A                      A
 Frequencies --    983.9755               999.5797              1021.8013
 Red. masses --      1.8368                 1.6315                 2.8800
 Frc consts  --      1.0478                 0.9605                 1.7716
 IR Inten    --      4.1481                 1.9692                 0.2573

                     34                     35                     36
                      A                      A                      A
 Frequencies --   1056.9282              1064.9600              1074.8717
 Red. masses --      1.7884                 2.1370                 2.2175
 Frc consts  --      1.1771                 1.4279                 1.5095
 IR Inten    --      1.8394                 0.7579                 0.2453

                     37                     38                     39
                      A                      A                      A
 Frequencies --   1089.7984              1102.7809              1142.0199
 Red. masses --      2.3602                 2.2279                 2.1999
 Frc consts  --      1.6515                 1.5964                 1.6905
 IR Inten    --      8.7684                 1.7273                33.6970

                     40                     41                     42
                      A                      A                      A
 Frequencies --   1144.7981              1163.2277              1207.6131
 Red. masses --      1.5048                 2.4580                 1.5733
 Frc consts  --      1.1620                 1.9595                 1.3518
 IR Inten    --      8.1000               202.8253                 3.4903

                     43                     44                     45
                      A                      A                      A
 Frequencies --   1234.2137              1247.6832              1275.6692
 Red. masses --      1.4805                 1.3499                 1.3011
 Frc consts  --      1.3288                 1.2381                 1.2475
 IR Inten    --      5.6481                13.1066                 6.6020

                     46                     47                     48
                      A                      A                      A
 Frequencies --   1287.9483              1306.3575              1324.6855
 Red. masses --      1.3005                 1.3144                 1.1854
 Frc consts  --      1.2711                 1.3216                 1.2255
 IR Inten    --      0.3894                 2.4567                 1.5471

                     49                     50                     51
                      A                      A                      A
 Frequencies --   1331.6898              1334.0474              1338.2052
 Red. masses --      1.2954                 1.0670                 1.1146
 Frc consts  --      1.3535                 1.1188                 1.1760
 IR Inten    --      0.5010                 0.9118                 0.7212

                     52                     53                     54
                      A                      A                      A
 Frequencies --   1346.3828              1379.7690              1381.6747
 Red. masses --      1.0886                 1.3734                 1.6771
 Frc consts  --      1.1627                 1.5405                 1.8864
 IR Inten    --      2.4277                 5.6016                30.1010

                     55                     56                     57
                      A                      A                      A
 Frequencies --   1393.5280              1411.7756              1418.5969
 Red. masses --      1.4317                 1.5597                 1.6755
 Frc consts  --      1.6381                 1.8316                 1.9866
 IR Inten    --      2.9882                 4.9223                 2.5651

                     58                     59                     60
                      A                      A                      A
 Frequencies --   1428.2964              1434.0514              1474.7511
 Red. masses --      1.2677                 1.9669                 1.0893
 Frc consts  --      1.5237                 2.3832                 1.3959
 IR Inten    --      2.8902                52.6607                15.2960

                     61                     62                     63
                      A                      A                      A
 Frequencies --   1498.5452              1500.0332              1501.5252
 Red. masses --      1.0788                 1.0762                 1.0770
 Frc consts  --      1.4273                 1.4267                 1.4306
 IR Inten    --      3.3750                 0.8407                 3.1904

                     64                     65                     66
                      A                      A                      A
 Frequencies --   1505.2285              1508.2923              1511.9907
 Red. masses --      1.0756                 1.0944                 1.0780
 Frc consts  --      1.4359                 1.4668                 1.4519
 IR Inten    --      2.9964                 5.6500                 0.6827

                     67                     68                     69
                      A                      A                      A
 Frequencies --   1514.3528              1521.8236              1528.4499
 Red. masses --      1.0401                 1.0854                 1.0941
 Frc consts  --      1.4053                 1.4810                 1.5060
 IR Inten    --      5.4930                 0.3270                 3.7205

                     70                     71                     72
                      A                      A                      A
 Frequencies --   1845.5693              3009.9332              3013.5682
 Red. masses --      9.7605                 1.0586                 1.0596
 Frc consts  --     19.5877                 5.6505                 5.6694
 IR Inten    --    253.7663                 0.4705                 6.4473

                     73                     74                     75
                      A                      A                      A
 Frequencies --   3016.7917              3021.9578              3025.5703
 Red. masses --      1.0632                 1.0660                 1.0620
 Frc consts  --      5.7011                 5.7358                 5.7277
 IR Inten    --      4.7650                 9.4314                11.5382

                     76                     77                     78
                      A                      A                      A
 Frequencies --   3029.8278              3034.8695              3038.0432
 Red. masses --      1.0663                 1.0978                 1.0362
 Frc consts  --      5.7674                 5.9575                 5.6349
 IR Inten    --    110.5428                 3.3941                42.8847

                     79                     80                     81
                      A                      A                      A
 Frequencies --   3044.0249              3047.5013              3050.5413
 Red. masses --      1.0684                 1.0918                 1.0891
 Frc consts  --      5.8327                 5.9740                 5.9715
 IR Inten    --      2.2328                 6.8529                 2.9399

                     82                     83                     84
                      A                      A                      A
 Frequencies --   3055.8084              3066.8420              3073.0760
 Red. masses --      1.0797                 1.1044                 1.0944
 Frc consts  --      5.9400                 6.1202                 6.0893
 IR Inten    --     32.5846                18.9338                55.6916

                     85                     86                     87
                      A                      A                      A
 Frequencies --   3083.2152              3086.3673              3104.7712
 Red. masses --      1.0998                 1.0980                 1.1004
 Frc consts  --      6.1597                 6.1626                 6.2497
 IR Inten    --     65.2243                54.0286                32.4794

                     88                     89                     90
                      A                      A                      A
 Frequencies --   3106.3351              3112.2817              3752.9182
 Red. masses --      1.1028                 1.1020                 1.0641
 Frc consts  --      6.2694                 6.2889                 8.8301
 IR Inten    --     69.5540                42.4690                46.2335

 - Thermochemistry -
 -------------------
 Temperature   298.150 Kelvin.  Pressure   1.00000 Atm.
 Atom     1 has atomic number  8 and mass  15.99491

 Molecular mass:   172.14633 amu.
 Principal axes and moments of inertia in atomic units:
                           1         2         3
     Eigenvalues --  1303.161516652.694377722.48949
           X            0.99984  -0.01807  -0.00124
           Y            0.01807   0.99983  -0.00291
           Z            0.00129   0.00289   0.99999
 This molecule is an asymmetric top.
 Rotational symmetry number  1.
 Warning -- assumption of classical behavior for rotation
           may cause significant error
 Rotational temperatures (Kelvin)      0.06646     0.01302     0.01122
 Rotational constants (GHZ):           1.38489     0.27128     0.23370
 Zero-point vibrational energy     763931.3 (Joules/Mol)
                                  182.58397 (Kcal/Mol)
 Warning -- explicit consideration of  19 degrees of freedom as
           vibrations may cause significant error
 Vibrational temperatures:     32.35    38.62    48.30   107.78   128.14
          (Kelvin)            136.23   158.52   193.65   222.44   244.19
                              338.77   361.48   386.92   436.22   607.50
                              623.04   640.19   717.85   759.78   910.05
                              970.44  1055.37  1067.86  1109.17  1149.15
                             1190.29  1262.10  1296.44  1312.62  1353.47
                             1415.72  1438.17  1470.14  1520.68  1532.24
                             1546.50  1567.98  1586.66  1643.11  1647.11
                             1673.63  1737.49  1775.76  1795.14  1835.40
                             1853.07  1879.56  1905.93  1916.00  1919.40
                             1925.38  1937.14  1985.18  1987.92  2004.98
                             2031.23  2041.04  2055.00  2063.28  2121.84
                             2156.07  2158.21  2160.36  2165.69  2170.10
                             2175.42  2178.82  2189.56  2199.10  2655.36
                             4330.62  4335.85  4340.49  4347.92  4353.12
                             4359.25  4366.50  4371.07  4379.67  4384.67
                             4389.05  4396.63  4412.50  4421.47  4436.06
                             4440.59  4467.07  4469.32  4477.88  5399.61

 Zero-point correction=                           0.290966 (Hartree/Particle)
 Thermal correction to Energy=                    0.305941
 Thermal correction to Enthalpy=                  0.306885
 Thermal correction to Gibbs Free Energy=         0.245809
 Sum of electronic and zero-point Energies=           -543.375031
 Sum of electronic and thermal Energies=              -543.360056
 Sum of electronic and thermal Enthalpies=            -543.359112
 Sum of electronic and thermal Free Energies=         -543.420188

                     E (Thermal)             CV                S
                      KCal/Mol        Cal/Mol-Kelvin    Cal/Mol-Kelvin
 Total                  191.981             52.791            128.545
 Electronic               0.000              0.000              0.000
 Translational            0.889              2.981             41.337
 Rotational               0.889              2.981             32.571
 Vibrational            190.203             46.829             54.637
 Vibration     1          0.593              1.985              6.402
 Vibration     2          0.593              1.984              6.050
 Vibration     3          0.594              1.983              5.607
 Vibration     4          0.599              1.966              4.020
 Vibration     5          0.602              1.957              3.681
 Vibration     6          0.603              1.953              3.561
 Vibration     7          0.606              1.941              3.266
 Vibration     8          0.613              1.919              2.879
 Vibration     9          0.620              1.898              2.615
 Vibration    10          0.625              1.880              2.439
 Vibration    11          0.655              1.787              1.837
 Vibration    12          0.663              1.761              1.722
 Vibration    13          0.673              1.730              1.603
 Vibration    14          0.695              1.668              1.399
 Vibration    15          0.785              1.422              0.884
 Vibration    16          0.794              1.398              0.849
 Vibration    17          0.804              1.372              0.811
 Vibration    18          0.854              1.252              0.661
 Vibration    19          0.883              1.188              0.592

 Optimization completed.
    -- Stationary point found.
 Normal termination of Gaussian 16 at Thu Feb  3 08:21:20 2022.

 ----------------------------------------------------------------------
 # M062X/def2tzvp int=(grid=ultrafine) pop=nbo7 polar prop=efg volume g
 uess=read geom=check
 ----------------------------------------------------------------------

 -------
 Ac1.xyz
 -------
 Structure from the checkpoint file:  "Ac1_clust-22.chk"
 Charge =  0 Multiplicity = 1

 SCF Done:  E(RM062X) =  -543.540978776     A.U. after   11 cycles

  Exact polarizability:     150.528      -4.953     125.060       1.915      -1.697     104.224
 Approx polarizability:     149.815      -2.638     145.994       3.461      -1.606     138.470

 Summary of Natural Population Analysis:

                                     Natural Population
             Natural    ---------------------------------------------
  Atom No    Charge        Core      Valence    Rydberg      Total
 --------------------------------------------------------------------
    O  1   -0.68845      2.00000     6.66661    0.02184     8.68845
    C  2    0.79799      1.99999     3.16611    0.03591     5.20201
    C  3   -0.51783      1.99999     4.50464    0.01320     6.51783
    C  4   -0.39039      1.99999     4.37784    0.01255     6.39039
    C  5   -0.39213      1.99999     4.38149    0.01065     6.39213
    C  6   -0.39951      1.99999     4.38823    0.01129     6.39951
    C  7   -0.38932      1.99999     4.37850    0.01082     6.38932
    C  8   -0.38798      1.99999     4.37691    0.01108     6.38798
    C  9   -0.38817      1.99999     4.37699    0.01119     6.38817
    C 10   -0.38978      1.99999     4.37965    0.01013     6.38978
    C 11   -0.60101      1.99999     4.59251    0.00851     6.60101
    O 12   -0.59624      2.00000     6.57008    0.02616     8.59624
    H 13    0.49278      0.00000     0.50387    0.00334     0.50722
    H 14    0.23270      0.00000     0.76582    0.00148     0.76730
    H 15    0.23371      0.00000     0.76468    0.00161     0.76629
    H 16    0.20607      0.00000     0.79221    0.00172     0.79393
    H 17    0.21972      0.00000     0.77878    0.00150     0.78028
    H 18    0.21060      0.00000     0.78810    0.00130     0.78940
    H 19    0.19440      0.00000     0.80373    0.00188     0.80560
    H 20    0.19399      0.00000     0.80402    0.00199     0.80601
    H 21    0.20385      0.00000     0.79458    0.00157     0.79615
    H 22    0.19450      0.00000     0.80360    0.00190     0.80550
    H 23    0.19170      0.00000     0.80646    0.00185     0.80830
    H 24    0.19399      0.00000     0.80404    0.00197     0.80601
    H 25    0.19303      0.00000     0.80503    0.00194     0.80697
    H 26    0.19267      0.00000     0.80539    0.00195     0.80733
    H 27    0.19262      0.00000     0.80546    0.00192     0.80738
    H 28    0.19370      0.00000     0.80451    0.00179     0.80630
    H 29    0.19371      0.00000     0.80450    0.00179     0.80629
    H 30    0.20033      0.00000     0.79841    0.00126     0.79967
    H 31    0.20045      0.00000     0.79829    0.00126     0.79955
    H 32    0.20832      0.00000     0.79072    0.00096     0.79168
 ====================================================================
 * Total *  0.00000     23.99992    71.78177    0.21831    96.00000

 1\1\GINC-NOTCH075\SP\RM062X\def2TZVP\C10H20O2\U6032257\03-Feb-2022\0\\
 # M062X/def2tzvp int=(grid=ultrafine) pop=nbo7 polar prop=efg volume g
 uess=read geom=check\\Ac1.xyz\\0,1\O,0,6.0608544919,-0.0559011415,-0.9
 856255322\C,0,5.2159833583,-0.5495793175,-0.0447698908\C,0,3.949768951
 1,-1.0897119397,-0.6681302932\C,0,3.0202118154,-1.7410194731,0.3546411
 672\C,0,1.6549651848,-2.1715371131,-0.1986938881\C,0,1.6963300984,-3.2
 370829189,-1.3126744437\C,0,1.7300884341,-2.6794676313,-2.741136771\C,
 0,1.7865556552,-3.7726958585,-3.8109769231\C,0,1.79765255,-3.225526774

 Normal termination of Gaussian 16 at Thu Feb  3 08:24:26 2022.
 Gaussian 16:  ES64L-G16RevC.01  3-Jul-2019

 --------------------------------------------------------------------
 # M062X/def2tzvp int=(grid=ultrafine) nmr=giao guess=read geom=check
 --------------------------------------------------------------------

 -------
 Ac1.xyz
 -------
 Structure from the checkpoint file:  "Ac1_clust-22.chk"
 Charge =  0 Multiplicity = 1

                         Standard orientation:
 ---------------------------------------------------------------------
 Center     Atomic      Atomic             Coordinates (Angstroms)
 Number     Number       Type             X           Y           Z
 ---------------------------------------------------------------------
      1          8           0       -3.244935   -2.428050    0.093332
      2          6           0       -3.504458   -1.103764   -0.053811
      3          6           0       -2.280990   -0.265485    0.236076
      4          6           0       -2.513241    1.223566   -0.015169
      5          6           0       -1.353255    2.136041    0.405834
      6          6           0       -0.019011    1.895267   -0.328927
      7          6           0        0.934799    0.915048    0.365333
      8          6           0        2.237472    0.695856   -0.407902
      9          6           0        3.205040   -0.263714    0.289181
     10          6           0        4.507274   -0.486037   -0.485141
     11          6           0        5.466885   -1.447173    0.219216
     12          8           0       -4.596304   -0.689426   -0.375071
     13          1           0       -4.079520   -2.886310   -0.102447
     14          1           0       -1.460594   -0.662158   -0.371285
     15          1           0       -1.992599   -0.453833    1.278479
     16          1           0       -2.724985    1.371961   -1.080791
     17          1           0       -3.423877    1.524823    0.512747
     18          1           0       -1.675237    3.169371    0.233180
     19          1           0       -1.191746    2.050245    1.489478
     20          1           0       -0.223575    1.548006   -1.351707
     21          1           0        0.507106    2.851551   -0.441719
     22          1           0        1.167486    1.297474    1.368920
     23          1           0        0.444886   -0.053384    0.521450
     24          1           0        2.734206    1.663628   -0.564930
     25          1           0        2.003402    0.310645   -1.410396
     26          1           0        3.440503    0.121355    1.291403
     27          1           0        2.707611   -1.231239    0.446664
     28          1           0        4.270326   -0.870227   -1.486323
     29          1           0        5.003494    0.481144   -0.641385
     30          1           0        5.745081   -1.070679    1.209967
     31          1           0        5.006527   -2.431703    0.358849
     32          1           0        6.388341   -1.588489   -0.354385
 ---------------------------------------------------------------------

 SCF Done:  E(RM062X) =  -543.540978776     A.U. after    1 cycles

      1  O    Isotropic =   105.0504   Anisotropy =   243.5290

      2  C    Isotropic =    -9.3428   Anisotropy =   122.0820

      3  C    Isotropic =   149.6714   Anisotropy =    42.5052

      4  C    Isotropic =   157.1151   Anisotropy =    27.6769

      5  C    Isotropic =   156.3291   Anisotropy =    14.0609

      6  C    Isotropic =   152.3674   Anisotropy =    31.0286

      7  C    Isotropic =   148.4591   Anisotropy =    42.2009

      8  C    Isotropic =   149.7394   Anisotropy =    38.7659

      9  C    Isotropic =   148.2906   Anisotropy =    40.0142

     10  C    Isotropic =   158.5332   Anisotropy =    24.1454

     11  C    Isotropic =   170.2691   Anisotropy =    27.8512

     12  O    Isotropic =  -163.8501   Anisotropy =   656.3455

     13  H    Isotropic =    25.7370   Anisotropy =    11.8779

     14  H    Isotropic =    29.3532   Anisotropy =     4.4162

     15  H    Isotropic =    29.8393   Anisotropy =     4.9521

     16  H    Isotropic =    30.4824   Anisotropy =     7.1281

     17  H    Isotropic =    29.9855   Anisotropy =     9.1316

     18  H    Isotropic =    30.0676   Anisotropy =     9.5072

     19  H    Isotropic =    30.9471   Anisotropy =     6.1870

     20  H    Isotropic =    30.9423   Anisotropy =     3.9113

     21  H    Isotropic =    30.3114   Anisotropy =     7.2449

     22  H    Isotropic =    30.7636   Anisotropy =     4.7107

     23  H    Isotropic =    30.4855   Anisotropy =     7.7774

     24  H    Isotropic =    30.7501   Anisotropy =     4.9921

     25  H    Isotropic =    30.7223   Anisotropy =     4.1222

     26  H    Isotropic =    30.7240   Anisotropy =     4.6557

     27  H    Isotropic =    30.6983   Anisotropy =     4.4103

     28  H    Isotropic =    30.6291   Anisotropy =     6.4969

     29  H    Isotropic =    30.6431   Anisotropy =     6.7497

     30  H    Isotropic =    31.0551   Anisotropy =     8.5335

     31  H    Isotropic =    31.0515   Anisotropy =     8.3844

     32  H    Isotropic =    30.7637   Anisotropy =    10.9919

 The electronic state is 1-A.
 Alpha  occ. eigenvalues --  -19.67476 -19.62176 -10.67961 -10.55468 -10.53684
 Alpha  occ. eigenvalues --  -10.53439 -10.53238 -10.53090 -10.52956 -10.52948
 Alpha  occ. eigenvalues --  -10.52839 -10.52229  -1.23548  -1.14042  -0.92069
 Alpha  occ. eigenvalues --   -0.90162  -0.87016  -0.83227  -0.78614  -0.73616
 Alpha  occ. eigenvalues --   -0.69492  -0.66448  -0.66013  -0.64602  -0.58451
 Alpha  occ. eigenvalues --   -0.57712  -0.56363  -0.55253  -0.52481  -0.51485
 Alpha  occ. eigenvalues --   -0.50361  -0.49390  -0.48544  -0.46798  -0.46756
 Alpha  occ. eigenvalues --   -0.45081  -0.43679  -0.43027  -0.41113  -0.40527
 Alpha  occ. eigenvalues --   -0.40141  -0.39884  -0.38878  -0.38452  -0.38154
 Alpha  occ. eigenvalues --   -0.37830  -0.35887  -0.35822
 Alpha virt. eigenvalues --    0.04324   0.05567   0.06809   0.07476   0.08333
 Alpha virt. eigenvalues --    0.08477   0.08965   0.10921   0.11310   0.11857
 Alpha virt. eigenvalues --    0.13402   0.14150   0.14685   0.14838   0.15182

 Mulliken charges:
               1
     1  O   -0.411796
     2  C    0.359477
     3  C   -0.364664
     4  C   -0.291109
     5  C   -0.265400
     6  C   -0.293950
     7  C   -0.315477
     8  C   -0.273197
     9  C   -0.278960
    10  C   -0.237466
    11  C   -0.427348
    12  O   -0.332415
    13  H    0.335830
    14  H    0.170201
    15  H    0.180503
    16  H    0.161693
    17  H    0.160952
    18  H    0.149173
    19  H    0.153362
    20  H    0.152868
    21  H    0.148373
    22  H    0.147917
    23  H    0.143296
    24  H    0.141482
    25  H    0.139814
    26  H    0.135438
    27  H    0.137343
    28  H    0.129917
    29  H    0.130011
    30  H    0.135998
    31  H    0.136276
    32  H    0.141860
 Sum of Mulliken charges =  -0.00000

 Dipole moment (field-independent basis, Debye):
    X=              1.5967    Y=             -0.2606    Z=              0.3958  Tot=              1.6655
 Quadrupole moment (field-independent basis, Debye-Ang):
   XX=            -89.3306   YY=            -73.5203   ZZ=            -77.3898
   XY=              4.9952   XZ=             -2.4903   YZ=              1.2634

 1\1\GINC-NOTCH075\SP\RM062X\def2TZVP\C10H20O2\U6032257\03-Feb-2022\0\\
 # M062X/def2tzvp int=(grid=ultrafine) nmr=giao guess=read geom=check\\
 Ac1.xyz\\0,1\O,0,6.0608544919,-0.0559011415,-0.9856255322\C,0,5.215983
 3583,-0.5495793175,-0.0447698908\C,0,3.9497689511,-1.0897119397,-0.668
 1302932\C,0,3.0202118154,-1.7410194731,0.3546411672\C,0,1.6549651848,-
 2.1715371131,-0.1986938881\C,0,1.6963300984,-3.2370829189,-1.312674443
 7\C,0,1.7300884341,-2.6794676313,-2.741136771\C,0,1.7865556552,-3.7726
 958585,-3.8109769231\C,0,1.79765255,-3.2255267741,-5.2404423985\C,0,1.

 Normal termination of Gaussian 16 at Thu Feb  3 08:25:42 2022.
