 Gaussian 16, Revision C.01,

 ----------------------------------------------------------------------
 # B3LYP/6-31G(d,p) empiricaldispersion=GD3BJ int=(grid=ultrafine) opt
 freq=noraman
 ----------------------------------------------------------------------

 -------
 Ac1.xyz
 -------
 Symbolic Z-matrix:
 Charge =  0 Multiplicity = 1

 SCF Done:  E(RB3LYP) =  -543.663398176     A.U. after   13 cycles
 SCF Done:  E(RB3LYP) =  -543.665316806     A.U. after   12 cycles
 SCF Done:  E(RB3LYP) =  -543.665084638     A.U. after   11 cycles
 SCF Done:  E(RB3LYP) =  -543.665563108     A.U. after   11 cycles
 SCF Done:  E(RB3LYP) =  -543.665591299     A.U. after   10 cycles
 SCF Done:  E(RB3LYP) =  -543.665568482     A.U. after   10 cycles
 SCF Done:  E(RB3LYP) =  -543.665602709     A.U. after    9 cycles
 SCF Done:  E(RB3LYP) =  -543.665604445     A.U. after    7 cycles
 SCF Done:  E(RB3LYP) =  -543.665605547     A.U. after    9 cycles
 SCF Done:  E(RB3LYP) =  -543.665605896     A.U. after    8 cycles
 SCF Done:  E(RB3LYP) =  -543.665606580     A.U. after    9 cycles
 SCF Done:  E(RB3LYP) =  -543.665607046     A.U. after    9 cycles
 SCF Done:  E(RB3LYP) =  -543.665607066     A.U. after    6 cycles
 Optimization completed.
    -- Stationary point found.
 Normal termination of Gaussian 16 at Sat Feb  5 08:57:38 2022.

 ----------------------------------------------------------------------
 #N Geom=AllCheck Guess=TCheck SCRF=Check GenChk RB3LYP/6-31G(d,p) Freq
 ----------------------------------------------------------------------

 Structure from the checkpoint file:  "Ac1_clust-5.chk"
 -------
 Ac1.xyz
 -------
 Charge =  0 Multiplicity = 1

 SCF Done:  E(RB3LYP) =  -543.665607066     A.U. after    1 cycles

                      1                      2                      3
                      A                      A                      A
 Frequencies --     17.8547                28.8592                37.4487
 Red. masses --      9.4990                 4.6342                 2.4877
 Frc consts  --      0.0018                 0.0023                 0.0021
 IR Inten    --      1.3589                 0.0369                 0.0428

                      4                      5                      6
                      A                      A                      A
 Frequencies --     57.8122                93.3260               106.8233
 Red. masses --      2.3763                 2.3213                 2.5188
 Frc consts  --      0.0047                 0.0119                 0.0169
 IR Inten    --      0.0376                 0.0557                 0.2777

                      7                      8                      9
                      A                      A                      A
 Frequencies --    111.9326               137.1270               157.0168
 Red. masses --      2.8197                 2.0289                 1.6613
 Frc consts  --      0.0208                 0.0225                 0.0241
 IR Inten    --      0.6995                 0.1594                 0.0972

                     10                     11                     12
                      A                      A                      A
 Frequencies --    179.8935               255.3737               271.7669
 Red. masses --      2.5379                 1.5115                 2.5412
 Frc consts  --      0.0484                 0.0581                 0.1106
 IR Inten    --      0.5323                 0.5394                 0.7817

                     13                     14                     15
                      A                      A                      A
 Frequencies --    310.3361               320.9868               343.5050
 Red. masses --      2.8736                 2.0804                 3.6900
 Frc consts  --      0.1631                 0.1263                 0.2565
 IR Inten    --      1.0096                 0.1681                 2.2250

                     16                     17                     18
                      A                      A                      A
 Frequencies --    460.1644               468.4135               507.0107
 Red. masses --      2.2657                 2.5655                 2.3719
 Frc consts  --      0.2827                 0.3317                 0.3592
 IR Inten    --      0.5543                 6.6755                13.8303

                     19                     20                     21
                      A                      A                      A
 Frequencies --    523.4209               630.4386               672.6262
 Red. masses --      1.7178                 4.4012                 1.3048
 Frc consts  --      0.2773                 1.0306                 0.3478
 IR Inten    --     19.5530                33.4779                87.7841

                     22                     23                     24
                      A                      A                      A
 Frequencies --    736.8756               746.0371               779.6394
 Red. masses --      1.1836                 1.1610                 1.1955
 Frc consts  --      0.3786                 0.3807                 0.4281
 IR Inten    --     12.6602                 8.7132                 1.2604

                     25                     26                     27
                      A                      A                      A
 Frequencies --    812.3666               831.8220               864.5203
 Red. masses --      1.5742                 1.9458                 1.6214
 Frc consts  --      0.6121                 0.7932                 0.7140
 IR Inten    --      1.4552                 0.5906                 3.6251

                     28                     29                     30
                      A                      A                      A
 Frequencies --    885.5835               893.1552               944.4022
 Red. masses --      2.9905                 1.8352                 2.0856
 Frc consts  --      1.3818                 0.8626                 1.0960
 IR Inten    --      4.3232                 1.6157                 0.4321

                     31                     32                     33
                      A                      A                      A
 Frequencies --    979.3276               997.2112              1012.9165
 Red. masses --      2.1365                 1.6099                 1.8810
 Frc consts  --      1.2073                 0.9433                 1.1371
 IR Inten    --      6.9019                 0.2444                 0.7525

                     34                     35                     36
                      A                      A                      A
 Frequencies --   1056.9004              1072.4440              1077.4730
 Red. masses --      1.4583                 2.3687                 2.5519
 Frc consts  --      0.9598                 1.6051                 1.7455
 IR Inten    --      1.3043                 1.5172                15.4259

                     37                     38                     39
                      A                      A                      A
 Frequencies --   1091.8538              1105.8543              1136.8525
 Red. masses --      2.2177                 2.1319                 2.0236
 Frc consts  --      1.5577                 1.5361                 1.5410
 IR Inten    --      2.7831                 0.2974                35.2717

                     40                     41                     42
                      A                      A                      A
 Frequencies --   1142.5406              1164.6873              1196.6518
 Red. masses --      1.5760                 2.2143                 1.6849
 Frc consts  --      1.2121                 1.7697                 1.4215
 IR Inten    --     38.4092               182.8778                12.9324

                     43                     44                     45
                      A                      A                      A
 Frequencies --   1227.4004              1245.6087              1280.1371
 Red. masses --      1.4518                 1.3355                 1.3216
 Frc consts  --      1.2886                 1.2208                 1.2760
 IR Inten    --      9.1847                 6.2576                 5.7077

                     46                     47                     48
                      A                      A                      A
 Frequencies --   1291.3671              1306.8321              1325.5256
 Red. masses --      1.2925                 1.2188                 1.2457
 Frc consts  --      1.2699                 1.2264                 1.2895
 IR Inten    --      4.1558                 0.5186                 1.0102

                     49                     50                     51
                      A                      A                      A
 Frequencies --   1332.7559              1336.6683              1344.5456
 Red. masses --      1.1585                 1.1051                 1.3063
 Frc consts  --      1.2124                 1.1633                 1.3914
 IR Inten    --      4.0670                 0.3368                 6.1786

                     52                     53                     54
                      A                      A                      A
 Frequencies --   1347.3978              1384.2963              1390.5461
 Red. masses --      1.1625                 1.3942                 1.3791
 Frc consts  --      1.2435                 1.5741                 1.5711
 IR Inten    --      3.8164                 8.4091                24.0517

                     55                     56                     57
                      A                      A                      A
 Frequencies --   1395.2441              1403.5720              1420.5661
 Red. masses --      1.4412                 1.6420                 1.5908
 Frc consts  --      1.6531                 1.9058                 1.8914
 IR Inten    --      0.2938                18.9517                 4.9922

                     58                     59                     60
                      A                      A                      A
 Frequencies --   1430.0885              1433.8406              1473.4803
 Red. masses --      1.2724                 2.0634                 1.0885
 Frc consts  --      1.5332                 2.4994                 1.3924
 IR Inten    --      5.3060                42.5552                12.2403

                     61                     62                     63
                      A                      A                      A
 Frequencies --   1495.4786              1497.4658              1503.1746
 Red. masses --      1.0789                 1.0816                 1.0703
 Frc consts  --      1.4217                 1.4290                 1.4248
 IR Inten    --      0.6173                 2.3499                 1.5808

                     64                     65                     66
                      A                      A                      A
 Frequencies --   1504.3014              1506.6971              1516.2066
 Red. masses --      1.0731                 1.0914                 1.0626
 Frc consts  --      1.4307                 1.4597                 1.4392
 IR Inten    --      3.9606                 1.3778                 0.8527

                     67                     68                     69
                      A                      A                      A
 Frequencies --   1518.6679              1521.1895              1524.1715
 Red. masses --      1.0830                 1.0965                 1.0643
 Frc consts  --      1.4716                 1.4950                 1.4568
 IR Inten    --      7.8925                 1.8860                 4.7250

                     70                     71                     72
                      A                      A                      A
 Frequencies --   1844.9991              3011.7645              3013.3609
 Red. masses --      9.7949                 1.0606                 1.0627
 Frc consts  --     19.6446                 5.6684                 5.6852
 IR Inten    --    232.6345                 0.8679                 8.9630

                     73                     74                     75
                      A                      A                      A
 Frequencies --   3014.9832              3023.4572              3025.1109
 Red. masses --      1.0618                 1.0667                 1.0654
 Frc consts  --      5.6867                 5.7450                 5.7445
 IR Inten    --     20.2926                14.2946                70.7261

                     76                     77                     78
                      A                      A                      A
 Frequencies --   3026.1727              3039.8360              3041.8429
 Red. masses --      1.0651                 1.0380                 1.0634
 Frc consts  --      5.7468                 5.6515                 5.7972
 IR Inten    --     24.6669                24.8188                 6.5025

                     79                     80                     81
                      A                      A                      A
 Frequencies --   3046.6050              3051.2658              3052.9155
 Red. masses --      1.0981                 1.0924                 1.0944
 Frc consts  --      6.0049                 5.9920                 6.0097
 IR Inten    --     22.1953                20.1649                21.7768

                     82                     83                     84
                      A                      A                      A
 Frequencies --   3063.3969              3063.5091              3069.3904
 Red. masses --      1.1014                 1.0759                 1.0991
 Frc consts  --      6.0898                 5.9490                 6.1010
 IR Inten    --     34.1092                35.0163                60.2428

                     85                     86                     87
                      A                      A                      A
 Frequencies --   3076.6022              3087.5776              3107.7204
 Red. masses --      1.0953                 1.1008                 1.1012
 Frc consts  --      6.1085                 6.1828                 6.2660
 IR Inten    --     14.5579                86.7386                44.1867

                     88                     89                     90
                      A                      A                      A
 Frequencies --   3117.7034              3122.6877              3752.7159
 Red. masses --      1.1017                 1.0970                 1.0641
 Frc consts  --      6.3091                 6.3022                 8.8291
 IR Inten    --     64.8904                23.5558                44.9207

 - Thermochemistry -
 -------------------
 Temperature   298.150 Kelvin.  Pressure   1.00000 Atm.
 Atom     1 has atomic number  8 and mass  15.99491

 Molecular mass:   172.14633 amu.
 Principal axes and moments of inertia in atomic units:
                           1         2         3
     Eigenvalues --  1764.701714823.715426162.34399
           X            0.99970   0.02441  -0.00251
           Y           -0.02439   0.99967   0.00768
           Z            0.00269  -0.00762   0.99997
 This molecule is an asymmetric top.
 Rotational symmetry number  1.
 Warning -- assumption of classical behavior for rotation
           may cause significant error
 Rotational temperatures (Kelvin)      0.04908     0.01796     0.01406
 Rotational constants (GHZ):           1.02269     0.37414     0.29287
 Zero-point vibrational energy     764605.7 (Joules/Mol)
                                  182.74515 (Kcal/Mol)
 Warning -- explicit consideration of  19 degrees of freedom as
           vibrations may cause significant error
 Vibrational temperatures:     25.69    41.52    53.88    83.18   134.28
          (Kelvin)            153.69   161.05   197.30   225.91   258.83
                              367.43   391.01   446.50   461.83   494.23
                              662.07   673.94   729.48   753.09   907.06
                              967.76  1060.20  1073.38  1121.73  1168.81
                             1196.81  1243.85  1274.16  1285.05  1358.78
                             1409.03  1434.76  1457.36  1520.64  1543.01
                             1550.24  1570.93  1591.08  1635.68  1643.86
                             1675.73  1721.72  1765.96  1792.15  1841.83
                             1857.99  1880.24  1907.14  1917.54  1923.17
                             1934.50  1938.60  1991.69  2000.69  2007.45
                             2019.43  2043.88  2057.58  2062.98  2120.01
                             2151.66  2154.52  2162.73  2164.35  2167.80
                             2181.48  2185.02  2188.65  2192.94  2654.54
                             4333.26  4335.55  4337.89  4350.08  4352.46
                             4353.99  4373.65  4376.53  4383.39  4390.09
                             4392.46  4407.54  4407.71  4416.17  4426.54
                             4442.34  4471.32  4485.68  4492.85  5399.32

 Zero-point correction=                           0.291223 (Hartree/Particle)
 Thermal correction to Energy=                    0.306075
 Thermal correction to Enthalpy=                  0.307020
 Thermal correction to Gibbs Free Energy=         0.246242
 Sum of electronic and zero-point Energies=           -543.374384
 Sum of electronic and thermal Energies=              -543.359532
 Sum of electronic and thermal Enthalpies=            -543.358588
 Sum of electronic and thermal Free Energies=         -543.419365

                     E (Thermal)             CV                S
                      KCal/Mol        Cal/Mol-Kelvin    Cal/Mol-Kelvin
 Total                  192.065             52.655            127.916
 Electronic               0.000              0.000              0.000
 Translational            0.889              2.981             41.337
 Rotational               0.889              2.981             32.328
 Vibrational            190.288             46.694             54.251
 Vibration     1          0.593              1.986              6.860
 Vibration     2          0.593              1.984              5.906
 Vibration     3          0.594              1.982              5.390
 Vibration     4          0.596              1.974              4.531
 Vibration     5          0.602              1.954              3.589
 Vibration     6          0.606              1.944              3.326
 Vibration     7          0.607              1.940              3.235
 Vibration     8          0.614              1.916              2.844
 Vibration     9          0.621              1.895              2.585
 Vibration    10          0.629              1.867              2.330
 Vibration    11          0.666              1.754              1.693
 Vibration    12          0.675              1.725              1.585
 Vibration    13          0.699              1.654              1.361
 Vibration    14          0.706              1.633              1.305
 Vibration    15          0.722              1.588              1.196
 Vibration    16          0.818              1.338              0.766
 Vibration    17          0.826              1.320              0.742
 Vibration    18          0.862              1.234              0.641
 Vibration    19          0.878              1.198              0.602

 Optimization completed.
    -- Stationary point found.
 Normal termination of Gaussian 16 at Sat Feb  5 08:58:41 2022.

 ----------------------------------------------------------------------
 # M062X/def2tzvp int=(grid=ultrafine) pop=nbo7 polar prop=efg volume g
 uess=read geom=check
 ----------------------------------------------------------------------

 -------
 Ac1.xyz
 -------
 Structure from the checkpoint file:  "Ac1_clust-5.chk"
 Charge =  0 Multiplicity = 1

 SCF Done:  E(RM062X) =  -543.540378092     A.U. after   11 cycles

  Exact polarizability:     137.280      -3.306     129.399      -4.069      -2.292     109.340
 Approx polarizability:     144.115      -1.970     142.413      -4.424      -4.613     148.259

 Summary of Natural Population Analysis:

                                     Natural Population
             Natural    ---------------------------------------------
  Atom No    Charge        Core      Valence    Rydberg      Total
 --------------------------------------------------------------------
    O  1   -0.68801      2.00000     6.66615    0.02186     8.68801
    C  2    0.79812      1.99999     3.16595    0.03593     5.20188
    C  3   -0.51067      1.99999     4.49785    0.01283     6.51067
    C  4   -0.39408      1.99999     4.38160    0.01249     6.39408
    C  5   -0.39930      1.99999     4.38799    0.01132     6.39930
    C  6   -0.39004      1.99999     4.37934    0.01071     6.39004
    C  7   -0.38522      1.99999     4.37415    0.01108     6.38522
    C  8   -0.40374      1.99999     4.39215    0.01159     6.40374
    C  9   -0.38782      1.99999     4.37670    0.01113     6.38782
    C 10   -0.39018      1.99999     4.37996    0.01023     6.39018
    C 11   -0.60899      1.99999     4.60025    0.00875     6.60899
    O 12   -0.59660      2.00000     6.57046    0.02615     8.59660
    H 13    0.49261      0.00000     0.50398    0.00340     0.50739
    H 14    0.23280      0.00000     0.76569    0.00151     0.76720
    H 15    0.23204      0.00000     0.76642    0.00154     0.76796
    H 16    0.21564      0.00000     0.78261    0.00175     0.78436
    H 17    0.20891      0.00000     0.78940    0.00170     0.79109
    H 18    0.20131      0.00000     0.79714    0.00154     0.79869
    H 19    0.19368      0.00000     0.80434    0.00198     0.80632
    H 20    0.19615      0.00000     0.80197    0.00188     0.80385
    H 21    0.20662      0.00000     0.79199    0.00139     0.79338
    H 22    0.19927      0.00000     0.79898    0.00175     0.80073
    H 23    0.19178      0.00000     0.80629    0.00193     0.80822
    H 24    0.19610      0.00000     0.80187    0.00204     0.80390
    H 25    0.19417      0.00000     0.80391    0.00192     0.80583
    H 26    0.19861      0.00000     0.79974    0.00165     0.80139
    H 27    0.19152      0.00000     0.80650    0.00198     0.80848
    H 28    0.19433      0.00000     0.80385    0.00181     0.80567
    H 29    0.19992      0.00000     0.79856    0.00152     0.80008
    H 30    0.19898      0.00000     0.79969    0.00133     0.80102
    H 31    0.20179      0.00000     0.79707    0.00114     0.79821
    H 32    0.21030      0.00000     0.78875    0.00095     0.78970
 ====================================================================
 * Total *  0.00000     23.99992    71.78131    0.21877    96.00000

 1\1\GINC-NOTCH214\SP\RM062X\def2TZVP\C10H20O2\U6032257\05-Feb-2022\0\\
 # M062X/def2tzvp int=(grid=ultrafine) pop=nbo7 polar prop=efg volume g
 uess=read geom=check\\Ac1.xyz\\0,1\O,0,5.4853931755,0.708312379,-0.084
 2553972\C,0,5.1851889315,-0.5114625934,-0.5983710811\C,0,3.7446250133,
 -0.884163385,-0.3396149628\C,0,3.3959104661,-2.289197642,-0.8240957335
 \C,0,1.9255616438,-2.6423314221,-0.5738809872\C,0,1.5123343778,-4.0396
 54206,-1.0774417601\C,0,0.9565002258,-4.0819358466,-2.5088234715\C,0,1
 .9145501363,-3.6090117286,-3.6062081216\C,0,1.3360638992,-3.7818509063

 Normal termination of Gaussian 16 at Sat Feb  5 09:00:57 2022.
 Gaussian 16:  ES64L-G16RevC.01  3-Jul-2019

 --------------------------------------------------------------------
 # M062X/def2tzvp int=(grid=ultrafine) nmr=giao guess=read geom=check
 --------------------------------------------------------------------

 -------
 Ac1.xyz
 -------
 Structure from the checkpoint file:  "Ac1_clust-5.chk"
 Charge =  0 Multiplicity = 1

                         Standard orientation:
 ---------------------------------------------------------------------
 Center     Atomic      Atomic             Coordinates (Angstroms)
 Number     Number       Type             X           Y           Z
 ---------------------------------------------------------------------
      1          8           0        4.338217   -1.178987   -0.557833
      2          6           0        3.243224   -0.787933    0.142420
      3          6           0        2.520212    0.346184   -0.544688
      4          6           0        1.335134    0.872791    0.260743
      5          6           0        0.599917    2.007651   -0.460911
      6          6           0       -0.628244    2.552102    0.295420
      7          6           0       -1.964367    1.880683   -0.056099
      8          6           0       -2.045732    0.377715    0.227166
      9          6           0       -3.437672   -0.202681   -0.042481
     10          6           0       -3.573547   -1.694774    0.290860
     11          6           0       -2.679966   -2.608036   -0.553804
     12          8           0        2.917198   -1.314965    1.183216
     13          1           0        4.730940   -1.910030   -0.051638
     14          1           0        2.198824   -0.018273   -1.529341
     15          1           0        3.251397    1.137230   -0.752407
     16          1           0        0.658745    0.042687    0.479072
     17          1           0        1.691236    1.228329    1.234543
     18          1           0        1.313794    2.824424   -0.628960
     19          1           0        0.291484    1.671958   -1.461399
     20          1           0       -0.451266    2.471217    1.376646
     21          1           0       -0.728843    3.623862    0.087390
     22          1           0       -2.765302    2.388644    0.497849
     23          1           0       -2.178478    2.053042   -1.120469
     24          1           0       -1.768513    0.185071    1.273382
     25          1           0       -1.308087   -0.149710   -0.387290
     26          1           0       -4.177133    0.362537    0.540329
     27          1           0       -3.696530   -0.042768   -1.099022
     28          1           0       -3.348391   -1.847445    1.354916
     29          1           0       -4.620698   -1.992709    0.155409
     30          1           0       -2.866595   -2.459084   -1.623770
     31          1           0       -1.617656   -2.417083   -0.373048
     32          1           0       -2.866000   -3.662504   -0.327009
 ---------------------------------------------------------------------

 SCF Done:  E(RM062X) =  -543.540378092     A.U. after    1 cycles

      1  O    Isotropic =   105.5347   Anisotropy =   243.8651

      2  C    Isotropic =    -9.1689   Anisotropy =   123.5114

      3  C    Isotropic =   148.8376   Anisotropy =    50.7725

      4  C    Isotropic =   156.3642   Anisotropy =    29.6139

      5  C    Isotropic =   153.8266   Anisotropy =    27.9891

      6  C    Isotropic =   155.3018   Anisotropy =    13.4515

      7  C    Isotropic =   149.3610   Anisotropy =    25.5924

      8  C    Isotropic =   154.4240   Anisotropy =    21.6344

      9  C    Isotropic =   150.1822   Anisotropy =    25.6259

     10  C    Isotropic =   160.7951   Anisotropy =    16.6076

     11  C    Isotropic =   172.4426   Anisotropy =    21.2044

     12  O    Isotropic =  -165.6997   Anisotropy =   653.1104

     13  H    Isotropic =    25.7522   Anisotropy =    11.7355

     14  H    Isotropic =    29.6839   Anisotropy =     5.6688

     15  H    Isotropic =    29.6687   Anisotropy =     6.9674

     16  H    Isotropic =    29.9301   Anisotropy =     7.9701

     17  H    Isotropic =    30.4899   Anisotropy =     6.0749

     18  H    Isotropic =    30.4213   Anisotropy =     8.1826

     19  H    Isotropic =    30.9737   Anisotropy =     4.3172

     20  H    Isotropic =    30.7630   Anisotropy =     6.2890

     21  H    Isotropic =    30.1237   Anisotropy =     9.7633

     22  H    Isotropic =    30.4477   Anisotropy =     7.7839

     23  H    Isotropic =    30.7250   Anisotropy =     6.4677

     24  H    Isotropic =    31.1638   Anisotropy =     4.6857

     25  H    Isotropic =    30.1996   Anisotropy =     7.1036

     26  H    Isotropic =    30.4857   Anisotropy =     7.2956

     27  H    Isotropic =    30.8441   Anisotropy =     6.3917

     28  H    Isotropic =    30.6134   Anisotropy =     7.7180

     29  H    Isotropic =    30.3549   Anisotropy =    10.2118

     30  H    Isotropic =    31.3942   Anisotropy =     8.5284

     31  H    Isotropic =    30.7803   Anisotropy =     7.5187

     32  H    Isotropic =    30.8581   Anisotropy =    10.7652

 The electronic state is 1-A.
 Alpha  occ. eigenvalues --  -19.67460 -19.62145 -10.67950 -10.55476 -10.53547
 Alpha  occ. eigenvalues --  -10.53429 -10.53050 -10.52848 -10.52724 -10.52623
 Alpha  occ. eigenvalues --  -10.52584 -10.51962  -1.23528  -1.14016  -0.91952
 Alpha  occ. eigenvalues --   -0.89965  -0.86960  -0.82642  -0.78282  -0.73918
 Alpha  occ. eigenvalues --   -0.70095  -0.66274  -0.65121  -0.64409  -0.58214
 Alpha  occ. eigenvalues --   -0.57190  -0.56727  -0.54491  -0.52434  -0.52036
 Alpha  occ. eigenvalues --   -0.49844  -0.49509  -0.48306  -0.47777  -0.45832
 Alpha  occ. eigenvalues --   -0.44536  -0.43366  -0.42753  -0.42271  -0.40305
 Alpha  occ. eigenvalues --   -0.40078  -0.39322  -0.38714  -0.38544  -0.37668
 Alpha  occ. eigenvalues --   -0.36926  -0.35885  -0.35717
 Alpha virt. eigenvalues --    0.04536   0.05308   0.06854   0.07655   0.07882
 Alpha virt. eigenvalues --    0.08537   0.09924   0.10899   0.11824   0.12197
 Alpha virt. eigenvalues --    0.13266   0.13827   0.14311   0.14517   0.14725

 Mulliken charges:
               1
     1  O   -0.411588
     2  C    0.355475
     3  C   -0.325926
     4  C   -0.318962
     5  C   -0.289272
     6  C   -0.261599
     7  C   -0.291119
     8  C   -0.335659
     9  C   -0.274949
    10  C   -0.233448
    11  C   -0.448160
    12  O   -0.333659
    13  H    0.335227
    14  H    0.170133
    15  H    0.171616
    16  H    0.168564
    17  H    0.158342
    18  H    0.147302
    19  H    0.151761
    20  H    0.153839
    21  H    0.144573
    22  H    0.140821
    23  H    0.150100
    24  H    0.159091
    25  H    0.141339
    26  H    0.137422
    27  H    0.143810
    28  H    0.136323
    29  H    0.134893
    30  H    0.136775
    31  H    0.143047
    32  H    0.143889
 Sum of Mulliken charges =  -0.00000

 Dipole moment (field-independent basis, Debye):
    X=              0.0918    Y=              0.8099    Z=             -1.2262  Tot=              1.4724
 Quadrupole moment (field-independent basis, Debye-Ang):
   XX=            -73.3578   YY=            -75.9130   ZZ=            -80.8657
   XY=             -0.6063   XZ=             -1.9909   YZ=              1.9960

 1\1\GINC-NOTCH214\SP\RM062X\def2TZVP\C10H20O2\U6032257\05-Feb-2022\0\\
 # M062X/def2tzvp int=(grid=ultrafine) nmr=giao guess=read geom=check\\
 Ac1.xyz\\0,1\O,0,5.4853931755,0.708312379,-0.0842553972\C,0,5.18518893
 15,-0.5114625934,-0.5983710811\C,0,3.7446250133,-0.884163385,-0.339614
 9628\C,0,3.3959104661,-2.289197642,-0.8240957335\C,0,1.9255616438,-2.6
 423314221,-0.5738809872\C,0,1.5123343778,-4.039654206,-1.0774417601\C,
 0,0.9565002258,-4.0819358466,-2.5088234715\C,0,1.9145501363,-3.6090117
 286,-3.6062081216\C,0,1.3360638992,-3.7818509063,-5.0142373884\C,0,2.2

 Normal termination of Gaussian 16 at Sat Feb  5 09:01:56 2022.
