 Gaussian 16, Revision C.01,

 ----------------------------------------------------------------------
 # B3LYP/6-31G(d,p) empiricaldispersion=GD3BJ int=(grid=ultrafine) opt
 freq=noraman
 ----------------------------------------------------------------------

 -------
 Ac1.xyz
 -------
 Symbolic Z-matrix:
 Charge =  0 Multiplicity = 1

 SCF Done:  E(RB3LYP) =  -543.663964905     A.U. after   13 cycles
 SCF Done:  E(RB3LYP) =  -543.664423652     A.U. after   12 cycles
 SCF Done:  E(RB3LYP) =  -543.665048395     A.U. after   13 cycles
 SCF Done:  E(RB3LYP) =  -543.666193178     A.U. after   12 cycles
 SCF Done:  E(RB3LYP) =  -543.666923705     A.U. after   11 cycles
 SCF Done:  E(RB3LYP) =  -543.666907343     A.U. after   11 cycles
 SCF Done:  E(RB3LYP) =  -543.666952609     A.U. after   10 cycles
 SCF Done:  E(RB3LYP) =  -543.666981739     A.U. after    9 cycles
 SCF Done:  E(RB3LYP) =  -543.666984009     A.U. after    8 cycles
 SCF Done:  E(RB3LYP) =  -543.666984626     A.U. after    7 cycles
 SCF Done:  E(RB3LYP) =  -543.666984687     A.U. after    6 cycles
 SCF Done:  E(RB3LYP) =  -543.666984712     A.U. after    5 cycles
 Optimization completed.
    -- Stationary point found.
 Normal termination of Gaussian 16 at Thu Feb  3 07:26:13 2022.

 ----------------------------------------------------------------------
 #N Geom=AllCheck Guess=TCheck SCRF=Check GenChk RB3LYP/6-31G(d,p) Freq
 ----------------------------------------------------------------------

 Structure from the checkpoint file:  "Ac1_clust-17.chk"
 -------
 Ac1.xyz
 -------
 Charge =  0 Multiplicity = 1

 SCF Done:  E(RB3LYP) =  -543.666984712     A.U. after    2 cycles

                      1                      2                      3
                      A                      A                      A
 Frequencies --     25.0867                32.2267                50.6992
 Red. masses --      4.7373                 3.4481                 2.4367
 Frc consts  --      0.0018                 0.0021                 0.0037
 IR Inten    --      0.6332                 0.0203                 0.0966

                      4                      5                      6
                      A                      A                      A
 Frequencies --     64.0517                79.1124               100.6278
 Red. masses --      5.8187                 3.2796                 4.7426
 Frc consts  --      0.0141                 0.0121                 0.0283
 IR Inten    --      0.8080                 0.3890                 0.1843

                      7                      8                      9
                      A                      A                      A
 Frequencies --    128.2287               170.6630               213.4713
 Red. masses --      1.8792                 3.7152                 1.6333
 Frc consts  --      0.0182                 0.0638                 0.0439
 IR Inten    --      0.0617                 0.0596                 0.0483

                     10                     11                     12
                      A                      A                      A
 Frequencies --    231.3892               278.3159               300.2029
 Red. masses --      2.1872                 1.7838                 1.9041
 Frc consts  --      0.0690                 0.0814                 0.1011
 IR Inten    --      0.0439                 0.0161                 0.1889

                     13                     14                     15
                      A                      A                      A
 Frequencies --    310.3101               374.5514               416.6154
 Red. masses --      2.1094                 1.9683                 1.9935
 Frc consts  --      0.1197                 0.1627                 0.2039
 IR Inten    --      0.2531                 0.6101                 1.1200

                     16                     17                     18
                      A                      A                      A
 Frequencies --    436.9468               474.7359               537.4538
 Red. masses --      2.3609                 2.0981                 2.4043
 Frc consts  --      0.2656                 0.2786                 0.4092
 IR Inten    --      1.7067                 1.1601                 4.6725

                     19                     20                     21
                      A                      A                      A
 Frequencies --    560.6206               612.5811               706.0522
 Red. masses --      3.5337                 1.4052                 1.7301
 Frc consts  --      0.6544                 0.3107                 0.5082
 IR Inten    --     29.9647                58.5858                97.6273

                     22                     23                     24
                      A                      A                      A
 Frequencies --    727.9752               749.0161               770.4799
 Red. masses --      1.4236                 1.3910                 2.0794
 Frc consts  --      0.4445                 0.4598                 0.7273
 IR Inten    --      5.3341                 2.9515                10.7737

                     25                     26                     27
                      A                      A                      A
 Frequencies --    796.6823               829.9992               867.7519
 Red. masses --      1.4377                 2.7289                 1.6365
 Frc consts  --      0.5376                 1.1076                 0.7260
 IR Inten    --      1.4433                 2.6761                 2.4168

                     28                     29                     30
                      A                      A                      A
 Frequencies --    881.9637               896.1746               933.1590
 Red. masses --      2.2785                 2.0503                 1.9012
 Frc consts  --      1.0443                 0.9702                 0.9754
 IR Inten    --      4.0051                 2.2118                 3.1142

                     31                     32                     33
                      A                      A                      A
 Frequencies --    963.4188               974.9981               987.8963
 Red. masses --      1.8881                 1.8242                 1.5533
 Frc consts  --      1.0326                 1.0217                 0.8931
 IR Inten    --      1.6374                 6.1448                 3.8624

                     34                     35                     36
                      A                      A                      A
 Frequencies --   1041.3675              1061.1794              1066.4276
 Red. masses --      1.7310                 1.9850                 1.6034
 Frc consts  --      1.1060                 1.3170                 1.0744
 IR Inten    --     13.2545                 4.7233                 8.9744

                     37                     38                     39
                      A                      A                      A
 Frequencies --   1086.1111              1110.9318              1118.5928
 Red. masses --      2.3701                 1.4303                 1.9352
 Frc consts  --      1.6472                 1.0401                 1.4266
 IR Inten    --      1.5690                59.7366                 1.7349

                     40                     41                     42
                      A                      A                      A
 Frequencies --   1135.2382              1178.6867              1203.4367
 Red. masses --      2.0580                 1.8470                 1.3493
 Frc consts  --      1.5627                 1.5119                 1.1514
 IR Inten    --      0.0652                40.4777                15.5601

                     43                     44                     45
                      A                      A                      A
 Frequencies --   1221.7321              1241.1422              1264.9277
 Red. masses --      1.5925                 1.3899                 1.2299
 Frc consts  --      1.4005                 1.2614                 1.1594
 IR Inten    --     44.2874                25.1292                 3.1920

                     46                     47                     48
                      A                      A                      A
 Frequencies --   1290.2146              1301.4165              1328.4822
 Red. masses --      1.2705                 1.2578                 1.1865
 Frc consts  --      1.2461                 1.2551                 1.2337
 IR Inten    --      5.5854                 0.1243                 1.4811

                     49                     50                     51
                      A                      A                      A
 Frequencies --   1341.2090              1347.0742              1354.8162
 Red. masses --      1.2404                 1.3711                 1.2156
 Frc consts  --      1.3147                 1.4658                 1.3146
 IR Inten    --      6.6916                10.4860                 2.5478

                     52                     53                     54
                      A                      A                      A
 Frequencies --   1376.2537              1386.0033              1390.1257
 Red. masses --      1.4343                 1.4172                 1.4458
 Frc consts  --      1.6006                 1.6040                 1.6462
 IR Inten    --      6.8081                12.3017                 2.1010

                     55                     56                     57
                      A                      A                      A
 Frequencies --   1392.6841              1410.4084              1415.5938
 Red. masses --      1.6741                 1.5087                 1.4277
 Frc consts  --      1.9131                 1.7682                 1.6856
 IR Inten    --     24.8910                 3.7237                 0.5788

                     58                     59                     60
                      A                      A                      A
 Frequencies --   1422.7298              1429.9324              1482.7723
 Red. masses --      1.4472                 1.2914                 1.1041
 Frc consts  --      1.7259                 1.5557                 1.4303
 IR Inten    --      0.8641                 5.1316                 7.8318

                     61                     62                     63
                      A                      A                      A
 Frequencies --   1491.5433              1500.6843              1503.0401
 Red. masses --      1.0783                 1.0811                 1.0785
 Frc consts  --      1.4133                 1.4344                 1.4355
 IR Inten    --      2.2651                 3.2138                 1.6922

                     64                     65                     66
                      A                      A                      A
 Frequencies --   1505.7565              1516.1074              1517.3588
 Red. masses --      1.0800                 1.0607                 1.0800
 Frc consts  --      1.4427                 1.4365                 1.4650
 IR Inten    --      5.0302                 4.7989                 6.3696

                     67                     68                     69
                      A                      A                      A
 Frequencies --   1518.4807              1523.8772              1525.2965
 Red. masses --      1.0725                 1.0634                 1.0967
 Frc consts  --      1.4570                 1.4549                 1.5033
 IR Inten    --      2.7740                 7.6297                 2.3599

                     70                     71                     72
                      A                      A                      A
 Frequencies --   1843.1748              3015.4859              3023.0063
 Red. masses --      9.5027                 1.0651                 1.0639
 Frc consts  --     19.0208                 5.7065                 5.7285
 IR Inten    --    243.4892                 6.1999                30.5622

                     73                     74                     75
                      A                      A                      A
 Frequencies --   3026.0767              3029.8344              3033.1297
 Red. masses --      1.0642                 1.0663                 1.0620
 Frc consts  --      5.7417                 5.7672                 5.7567
 IR Inten    --     17.4388                 4.5114                53.4391

                     76                     77                     78
                      A                      A                      A
 Frequencies --   3040.8989              3046.5722              3050.2272
 Red. masses --      1.0381                 1.0685                 1.0689
 Frc consts  --      5.6556                 5.8429                 5.8595
 IR Inten    --     20.3042                24.7507                12.5095

                     79                     80                     81
                      A                      A                      A
 Frequencies --   3057.4526              3059.7107              3061.6608
 Red. masses --      1.0788                 1.0860                 1.0922
 Frc consts  --      5.9416                 5.9900                 6.0319
 IR Inten    --     17.0808                 9.9743                28.1188

                     82                     83                     84
                      A                      A                      A
 Frequencies --   3066.4266              3078.7157              3083.1373
 Red. masses --      1.0940                 1.0971                 1.0983
 Frc consts  --      6.0610                 6.1268                 6.1513
 IR Inten    --     32.8165                78.5688                61.3551

                     85                     86                     87
                      A                      A                      A
 Frequencies --   3096.2976              3099.4417              3108.1714
 Red. masses --      1.0987                 1.1003                 1.1015
 Frc consts  --      6.2059                 6.2280                 6.2698
 IR Inten    --     46.6299                19.5723                44.7596

                     88                     89                     90
                      A                      A                      A
 Frequencies --   3117.8523              3127.1045              3754.6935
 Red. masses --      1.1016                 1.0989                 1.0642
 Frc consts  --      6.3091                 6.3313                 8.8392
 IR Inten    --     49.2504                18.2533                50.5417

 - Thermochemistry -
 -------------------
 Temperature   298.150 Kelvin.  Pressure   1.00000 Atm.
 Atom     1 has atomic number  8 and mass  15.99491

 Molecular mass:   172.14633 amu.
 Principal axes and moments of inertia in atomic units:
                           1         2         3
     Eigenvalues --   958.268735288.423135510.61136
           X            0.99992  -0.01268   0.00134
           Y            0.01268   0.99991  -0.00317
           Z           -0.00130   0.00319   0.99999
 This molecule is an asymmetric top.
 Rotational symmetry number  1.
 Warning -- assumption of classical behavior for rotation
           may cause significant error
 Rotational temperatures (Kelvin)      0.09039     0.01638     0.01572
 Rotational constants (GHZ):           1.88334     0.34126     0.32750
 Zero-point vibrational energy     767429.3 (Joules/Mol)
                                  183.42001 (Kcal/Mol)
 Warning -- explicit consideration of  20 degrees of freedom as
           vibrations may cause significant error
 Vibrational temperatures:     36.09    46.37    72.94    92.16   113.83
          (Kelvin)            144.78   184.49   245.55   307.14   332.92
                              400.43   431.92   446.47   538.90   599.42
                              628.67   683.04   773.28   806.61   881.37
                             1015.85  1047.39  1077.67  1108.55  1146.25
                             1194.18  1248.50  1268.95  1289.40  1342.61
                             1386.14  1402.80  1421.36  1498.30  1526.80
                             1534.35  1562.67  1598.38  1609.41  1633.35
                             1695.87  1731.48  1757.80  1785.73  1819.95
                             1856.33  1872.45  1911.39  1929.70  1938.14
                             1949.28  1980.12  1994.15  2000.08  2003.76
                             2029.26  2036.72  2046.99  2057.35  2133.38
                             2146.00  2159.15  2162.54  2166.45  2181.34
                             2183.14  2184.76  2192.52  2194.56  2651.92
                             4338.61  4349.43  4353.85  4359.26  4364.00
                             4375.18  4383.34  4388.60  4398.99  4402.24
                             4405.05  4411.90  4429.59  4435.95  4454.88
                             4459.41  4471.97  4485.89  4499.21  5402.17

 Zero-point correction=                           0.292298 (Hartree/Particle)
 Thermal correction to Energy=                    0.306655
 Thermal correction to Enthalpy=                  0.307599
 Thermal correction to Gibbs Free Energy=         0.248955
 Sum of electronic and zero-point Energies=           -543.374686
 Sum of electronic and thermal Energies=              -543.360330
 Sum of electronic and thermal Enthalpies=            -543.359386
 Sum of electronic and thermal Free Energies=         -543.418030

                     E (Thermal)             CV                S
                      KCal/Mol        Cal/Mol-Kelvin    Cal/Mol-Kelvin
 Total                  192.429             52.133            123.428
 Electronic               0.000              0.000              0.000
 Translational            0.889              2.981             41.337
 Rotational               0.889              2.981             31.702
 Vibrational            190.651             46.171             50.389
 Vibration     1          0.593              1.985              6.184
 Vibration     2          0.594              1.983              5.687
 Vibration     3          0.595              1.977              4.790
 Vibration     4          0.597              1.971              4.328
 Vibration     5          0.600              1.963              3.913
 Vibration     6          0.604              1.949              3.442
 Vibration     7          0.611              1.925              2.972
 Vibration     8          0.626              1.879              2.428
 Vibration     9          0.644              1.820              2.014
 Vibration    10          0.653              1.793              1.868
 Vibration    11          0.679              1.714              1.544
 Vibration    12          0.693              1.673              1.416
 Vibration    13          0.699              1.654              1.361
 Vibration    14          0.746              1.524              1.061
 Vibration    15          0.780              1.434              0.904
 Vibration    16          0.797              1.390              0.836
 Vibration    17          0.831              1.306              0.724
 Vibration    18          0.892              1.167              0.571
 Vibration    19          0.916              1.117              0.523
 Vibration    20          0.972              1.005              0.429

 Optimization completed.
    -- Stationary point found.
 Normal termination of Gaussian 16 at Thu Feb  3 07:27:52 2022.

 ----------------------------------------------------------------------
 # M062X/def2tzvp int=(grid=ultrafine) pop=nbo7 polar prop=efg volume g
 uess=read geom=check
 ----------------------------------------------------------------------

 -------
 Ac1.xyz
 -------
 Structure from the checkpoint file:  "Ac1_clust-17.chk"
 Charge =  0 Multiplicity = 1

 SCF Done:  E(RM062X) =  -543.540591029     A.U. after   11 cycles

  Exact polarizability:     141.693      -1.534     117.262      -3.735      -1.405     112.513
 Approx polarizability:     142.277      -0.022     144.455      -5.235      -1.195     149.129

 Summary of Natural Population Analysis:

                                     Natural Population
             Natural    ---------------------------------------------
  Atom No    Charge        Core      Valence    Rydberg      Total
 --------------------------------------------------------------------
    O  1   -0.69984      2.00000     6.67750    0.02234     8.69984
    C  2    0.79934      1.99999     3.16291    0.03776     5.20066
    C  3   -0.51586      1.99999     4.50218    0.01369     6.51586
    C  4   -0.39212      1.99999     4.38124    0.01089     6.39212
    C  5   -0.40010      1.99999     4.38868    0.01142     6.40010
    C  6   -0.41154      1.99999     4.40022    0.01132     6.41154
    C  7   -0.40057      1.99999     4.38912    0.01146     6.40057
    C  8   -0.40159      1.99999     4.39014    0.01145     6.40159
    C  9   -0.39706      1.99999     4.38553    0.01154     6.39706
    C 10   -0.38967      1.99999     4.37938    0.01030     6.38967
    C 11   -0.60893      1.99999     4.60010    0.00883     6.60893
    O 12   -0.59635      2.00000     6.56980    0.02655     8.59635
    H 13    0.49534      0.00000     0.50130    0.00336     0.50466
    H 14    0.22890      0.00000     0.76953    0.00157     0.77110
    H 15    0.23816      0.00000     0.76054    0.00129     0.76184
    H 16    0.21325      0.00000     0.78499    0.00176     0.78675
    H 17    0.21230      0.00000     0.78626    0.00144     0.78770
    H 18    0.20245      0.00000     0.79592    0.00163     0.79755
    H 19    0.20343      0.00000     0.79492    0.00165     0.79657
    H 20    0.20528      0.00000     0.79317    0.00155     0.79472
    H 21    0.21616      0.00000     0.78225    0.00159     0.78384
    H 22    0.20294      0.00000     0.79544    0.00162     0.79706
    H 23    0.20600      0.00000     0.79238    0.00163     0.79400
    H 24    0.19117      0.00000     0.80683    0.00200     0.80883
    H 25    0.20343      0.00000     0.79493    0.00163     0.79657
    H 26    0.19884      0.00000     0.79956    0.00160     0.80116
    H 27    0.19340      0.00000     0.80457    0.00203     0.80660
    H 28    0.19258      0.00000     0.80558    0.00184     0.80742
    H 29    0.19991      0.00000     0.79855    0.00154     0.80009
    H 30    0.20030      0.00000     0.79838    0.00131     0.79970
    H 31    0.20085      0.00000     0.79798    0.00117     0.79915
    H 32    0.20958      0.00000     0.78947    0.00095     0.79042
 ====================================================================
 * Total *  0.00000     23.99992    71.77935    0.22073    96.00000

 1\1\GINC-NOTCH075\SP\RM062X\def2TZVP\C10H20O2\U6032257\03-Feb-2022\0\\
 # M062X/def2tzvp int=(grid=ultrafine) pop=nbo7 polar prop=efg volume g
 uess=read geom=check\\Ac1.xyz\\0,1\O,0,5.6530642014,-1.1227501056,-0.8
 161732425\C,0,4.6181882614,-0.6659390663,-0.0607609989\C,0,3.913416776
 7,-1.7910900635,0.6588611388\C,0,3.3197858025,-2.8847757164,-0.2524663
 \C,0,2.0223137292,-2.4880489103,-0.972505104\C,0,2.1413725314,-1.37651
 81729,-2.026974923\C,0,3.1079703736,-1.6771141262,-3.1850779046\C,0,2.
 8341640684,-2.9814935148,-3.9484262781\C,0,1.4456966263,-3.052921655,-

 Normal termination of Gaussian 16 at Thu Feb  3 07:31:35 2022.
 Gaussian 16:  ES64L-G16RevC.01  3-Jul-2019

 --------------------------------------------------------------------
 # M062X/def2tzvp int=(grid=ultrafine) nmr=giao guess=read geom=check
 --------------------------------------------------------------------

 -------
 Ac1.xyz
 -------
 Structure from the checkpoint file:  "Ac1_clust-17.chk"
 Charge =  0 Multiplicity = 1

                         Standard orientation:
 ---------------------------------------------------------------------
 Center     Atomic      Atomic             Coordinates (Angstroms)
 Number     Number       Type             X           Y           Z
 ---------------------------------------------------------------------
      1          8           0       -2.734214   -1.452372   -0.915515
      2          6           0       -3.152174   -0.495686   -0.043533
      3          6           0       -2.964588    0.892907   -0.606691
      4          6           0       -1.513093    1.262780   -0.974687
      5          6           0       -0.609096    1.590356    0.223129
      6          6           0       -0.295006    0.427311    1.177204
      7          6           0        0.405735   -0.778015    0.527570
      8          6           0        1.708467   -0.456897   -0.219992
      9          6           0        2.794335    0.179507    0.654267
     10          6           0        4.102821    0.482469   -0.089634
     11          6           0        4.842999   -0.760880   -0.591330
     12          8           0       -3.630713   -0.775223    1.033630
     13          1           0       -2.888960   -2.302146   -0.469755
     14          1           0       -3.373440    1.594500    0.124315
     15          1           0       -3.582628    0.947993   -1.510817
     16          1           0       -1.080713    0.459472   -1.579713
     17          1           0       -1.555672    2.145398   -1.622645
     18          1           0        0.330469    2.002350   -0.164952
     19          1           0       -1.074713    2.400081    0.800111
     20          1           0        0.330673    0.817130    1.988897
     21          1           0       -1.216989    0.083230    1.657503
     22          1           0        0.620145   -1.513961    1.313798
     23          1           0       -0.284167   -1.270818   -0.166157
     24          1           0        1.498282    0.207997   -1.068878
     25          1           0        2.088623   -1.387089   -0.658127
     26          1           0        2.413812    1.113796    1.084427
     27          1           0        3.005710   -0.483065    1.505971
     28          1           0        3.888115    1.147397   -0.937408
     29          1           0        4.765732    1.046841    0.577970
     30          1           0        5.058526   -1.448011    0.235017
     31          1           0        4.258169   -1.311439   -1.334491
     32          1           0        5.796042   -0.492009   -1.057813
 ---------------------------------------------------------------------

 SCF Done:  E(RM062X) =  -543.540591029     A.U. after    1 cycles

      1  O    Isotropic =    98.5560   Anisotropy =   226.7880

      2  C    Isotropic =   -11.5348   Anisotropy =   134.1288

      3  C    Isotropic =   146.4020   Anisotropy =    27.1927

      4  C    Isotropic =   162.2612   Anisotropy =    19.2336

      5  C    Isotropic =   158.1207   Anisotropy =    23.6091

      6  C    Isotropic =   164.2962   Anisotropy =    15.3966

      7  C    Isotropic =   160.4819   Anisotropy =    20.9588

      8  C    Isotropic =   161.4799   Anisotropy =    21.5529

      9  C    Isotropic =   155.6797   Anisotropy =    18.7080

     10  C    Isotropic =   160.8585   Anisotropy =    17.6326

     11  C    Isotropic =   172.7783   Anisotropy =    22.1938

     12  O    Isotropic =  -178.9632   Anisotropy =   627.9519

     13  H    Isotropic =    25.7623   Anisotropy =     9.8706

     14  H    Isotropic =    29.8445   Anisotropy =     6.5563

     15  H    Isotropic =    29.4405   Anisotropy =     8.1024

     16  H    Isotropic =    29.8233   Anisotropy =     4.2953

     17  H    Isotropic =    30.4031   Anisotropy =     9.7646

     18  H    Isotropic =    30.2886   Anisotropy =     7.3644

     19  H    Isotropic =    30.5895   Anisotropy =     9.0522

     20  H    Isotropic =    30.5260   Anisotropy =     8.1128

     21  H    Isotropic =    30.2551   Anisotropy =     8.5039

     22  H    Isotropic =    30.7919   Anisotropy =     8.6477

     23  H    Isotropic =    30.0372   Anisotropy =    10.3467

     24  H    Isotropic =    30.9644   Anisotropy =     5.2357

     25  H    Isotropic =    30.3550   Anisotropy =     8.0262

     26  H    Isotropic =    30.2701   Anisotropy =     6.7594

     27  H    Isotropic =    31.1947   Anisotropy =     6.9838

     28  H    Isotropic =    30.7885   Anisotropy =     7.3721

     29  H    Isotropic =    30.3165   Anisotropy =     9.7961

     30  H    Isotropic =    31.3758   Anisotropy =     9.1162

     31  H    Isotropic =    30.7690   Anisotropy =     6.8367

     32  H    Isotropic =    30.8711   Anisotropy =    11.0984

 The electronic state is 1-A.
 Alpha  occ. eigenvalues --  -19.67624 -19.62142 -10.68037 -10.55524 -10.54495
 Alpha  occ. eigenvalues --  -10.53372 -10.52891 -10.52663 -10.52632 -10.52617
 Alpha  occ. eigenvalues --  -10.52575 -10.52102  -1.23602  -1.14031  -0.92154
 Alpha  occ. eigenvalues --   -0.89961  -0.86641  -0.82400  -0.78165  -0.74528
 Alpha  occ. eigenvalues --   -0.70438  -0.68242  -0.65402  -0.62299  -0.58246
 Alpha  occ. eigenvalues --   -0.57648  -0.55939  -0.53744  -0.52425  -0.51760
 Alpha  occ. eigenvalues --   -0.50625  -0.49511  -0.48731  -0.47314  -0.46443
 Alpha  occ. eigenvalues --   -0.45452  -0.44203  -0.42716  -0.41973  -0.41187
 Alpha  occ. eigenvalues --   -0.40566  -0.39196  -0.38804  -0.38385  -0.37223
 Alpha  occ. eigenvalues --   -0.36509  -0.35812  -0.35321
 Alpha virt. eigenvalues --    0.03681   0.05564   0.06547   0.08162   0.08298
 Alpha virt. eigenvalues --    0.09261   0.09959   0.10863   0.11999   0.12726
 Alpha virt. eigenvalues --    0.12973   0.13820   0.14471   0.14621   0.15747

 Mulliken charges:
               1
     1  O   -0.409713
     2  C    0.293075
     3  C   -0.272814
     4  C   -0.305345
     5  C   -0.313825
     6  C   -0.348863
     7  C   -0.326175
     8  C   -0.311916
     9  C   -0.287064
    10  C   -0.238608
    11  C   -0.442364
    12  O   -0.322494
    13  H    0.339530
    14  H    0.166704
    15  H    0.165452
    16  H    0.181687
    17  H    0.150181
    18  H    0.158593
    19  H    0.155659
    20  H    0.167185
    21  H    0.190730
    22  H    0.153259
    23  H    0.170281
    24  H    0.152869
    25  H    0.150084
    26  H    0.142797
    27  H    0.150636
    28  H    0.133680
    29  H    0.135916
    30  H    0.137911
    31  H    0.140239
    32  H    0.142711
 Sum of Mulliken charges =  -0.00000

 Dipole moment (field-independent basis, Debye):
    X=              0.9307    Y=              0.4676    Z=             -1.4628  Tot=              1.7957
 Quadrupole moment (field-independent basis, Debye-Ang):
   XX=            -83.1819   YY=            -72.4183   ZZ=            -80.8310
   XY=             -1.3642   XZ=              7.1788   YZ=              0.0339

 1\1\GINC-NOTCH075\SP\RM062X\def2TZVP\C10H20O2\U6032257\03-Feb-2022\0\\
 # M062X/def2tzvp int=(grid=ultrafine) nmr=giao guess=read geom=check\\
 Ac1.xyz\\0,1\O,0,5.6530642014,-1.1227501056,-0.8161732425\C,0,4.618188
 2614,-0.6659390663,-0.0607609989\C,0,3.9134167767,-1.7910900635,0.6588
 611388\C,0,3.3197858025,-2.8847757164,-0.2524663\C,0,2.0223137292,-2.4
 880489103,-0.972505104\C,0,2.1413725314,-1.3765181729,-2.026974923\C,0
 ,3.1079703736,-1.6771141262,-3.1850779046\C,0,2.8341640684,-2.98149351
 48,-3.9484262781\C,0,1.4456966263,-3.052921655,-4.593022657\C,0,1.1801

 Normal termination of Gaussian 16 at Thu Feb  3 07:33:06 2022.
