 Gaussian 16, Revision C.01,

 ----------------------------------------------------------------------
 # B3LYP/6-31G(d,p) empiricaldispersion=GD3BJ int=(grid=ultrafine) opt
 freq=noraman
 ----------------------------------------------------------------------

 -------
 Ac1.xyz
 -------
 Symbolic Z-matrix:
 Charge =  0 Multiplicity = 1

 SCF Done:  E(RB3LYP) =  -543.665542878     A.U. after   13 cycles
 SCF Done:  E(RB3LYP) =  -543.667986339     A.U. after   11 cycles
 SCF Done:  E(RB3LYP) =  -543.668046993     A.U. after   11 cycles
 SCF Done:  E(RB3LYP) =  -543.667984699     A.U. after   11 cycles
 SCF Done:  E(RB3LYP) =  -543.668171236     A.U. after   11 cycles
 SCF Done:  E(RB3LYP) =  -543.668177623     A.U. after    9 cycles
 SCF Done:  E(RB3LYP) =  -543.668178217     A.U. after    8 cycles
 SCF Done:  E(RB3LYP) =  -543.668178436     A.U. after    7 cycles
 SCF Done:  E(RB3LYP) =  -543.668178562     A.U. after    7 cycles
 SCF Done:  E(RB3LYP) =  -543.668178608     A.U. after    7 cycles
 Optimization completed.
    -- Stationary point found.
 Normal termination of Gaussian 16 at Sat Feb  5 08:54:12 2022.

 ----------------------------------------------------------------------
 #N Geom=AllCheck Guess=TCheck SCRF=Check GenChk RB3LYP/6-31G(d,p) Freq
 ----------------------------------------------------------------------

 Structure from the checkpoint file:  "Ac1_clust-43.chk"
 -------
 Ac1.xyz
 -------
 Charge =  0 Multiplicity = 1

 SCF Done:  E(RB3LYP) =  -543.668178608     A.U. after    1 cycles

                      1                      2                      3
                      A                      A                      A
 Frequencies --     22.8329                28.7652                39.2117
 Red. masses --      3.6010                 4.2573                 4.4716
 Frc consts  --      0.0011                 0.0021                 0.0041
 IR Inten    --      0.0962                 0.2071                 0.8862

                      4                      5                      6
                      A                      A                      A
 Frequencies --     46.1103                75.3081                93.9231
 Red. masses --      3.0152                 1.9384                 4.9892
 Frc consts  --      0.0038                 0.0065                 0.0259
 IR Inten    --      0.0895                 0.0065                 1.1219

                      7                      8                      9
                      A                      A                      A
 Frequencies --    111.8452               196.6736               211.5356
 Red. masses --      3.0001                 2.1931                 2.1599
 Frc consts  --      0.0221                 0.0500                 0.0569
 IR Inten    --      0.0358                 0.1228                 0.0455

                     10                     11                     12
                      A                      A                      A
 Frequencies --    241.4152               248.0842               264.6452
 Red. masses --      1.5317                 1.8627                 1.6132
 Frc consts  --      0.0526                 0.0675                 0.0666
 IR Inten    --      0.6545                 1.2713                 0.0273

                     13                     14                     15
                      A                      A                      A
 Frequencies --    292.0034               297.6085               343.9879
 Red. masses --      2.8428                 2.0436                 2.9028
 Frc consts  --      0.1428                 0.1066                 0.2024
 IR Inten    --      1.2051                 0.2292                 0.7447

                     16                     17                     18
                      A                      A                      A
 Frequencies --    451.3167               517.0124               523.7684
 Red. masses --      2.9895                 1.7696                 2.6364
 Frc consts  --      0.3588                 0.2787                 0.4261
 IR Inten    --      6.3030                20.3290                11.6945

                     19                     20                     21
                      A                      A                      A
 Frequencies --    551.0975               621.9522               679.5296
 Red. masses --      2.6044                 3.2468                 1.3787
 Frc consts  --      0.4660                 0.7400                 0.3751
 IR Inten    --     11.9495                12.9318                98.9611

                     22                     23                     24
                      A                      A                      A
 Frequencies --    721.7389               739.4030               767.3074
 Red. masses --      1.1953                 1.1933                 1.3451
 Frc consts  --      0.3669                 0.3844                 0.4666
 IR Inten    --     15.9350                 1.3882                 7.3517

                     25                     26                     27
                      A                      A                      A
 Frequencies --    816.0674               834.6528               847.3133
 Red. masses --      1.7033                 2.5039                 2.2267
 Frc consts  --      0.6683                 1.0277                 0.9419
 IR Inten    --      3.2253                 4.2625                 0.8861

                     28                     29                     30
                      A                      A                      A
 Frequencies --    878.5752               897.0683               930.1307
 Red. masses --      1.7464                 1.4668                 1.9987
 Frc consts  --      0.7943                 0.6954                 1.0188
 IR Inten    --      2.6616                 2.3454                 3.5949

                     31                     32                     33
                      A                      A                      A
 Frequencies --    975.7028               990.1301              1030.0278
 Red. masses --      1.8139                 1.5553                 2.1791
 Frc consts  --      1.0174                 0.8983                 1.3622
 IR Inten    --      0.3149                 2.9072                 2.6992

                     34                     35                     36
                      A                      A                      A
 Frequencies --   1042.3387              1058.7093              1071.5125
 Red. masses --      2.1027                 1.6122                 1.9190
 Frc consts  --      1.3460                 1.0647                 1.2982
 IR Inten    --      0.2257                 0.6391                 6.3163

                     37                     38                     39
                      A                      A                      A
 Frequencies --   1093.9921              1108.7730              1128.4225
 Red. masses --      2.1872                 2.2404                 1.8076
 Frc consts  --      1.5423                 1.6228                 1.3561
 IR Inten    --     12.4741                 1.3982                83.8895

                     40                     41                     42
                      A                      A                      A
 Frequencies --   1142.3631              1168.3058              1205.9815
 Red. masses --      1.6433                 2.2336                 1.5911
 Frc consts  --      1.2635                 1.7962                 1.3634
 IR Inten    --      2.5621               162.7982                54.8346

                     43                     44                     45
                      A                      A                      A
 Frequencies --   1217.3112              1250.7783              1281.3677
 Red. masses --      1.5220                 1.3413                 1.3243
 Frc consts  --      1.3288                 1.2364                 1.2811
 IR Inten    --     10.5585                 3.2671                 1.7764

                     46                     47                     48
                      A                      A                      A
 Frequencies --   1289.7189              1316.6958              1324.0016
 Red. masses --      1.3264                 1.3448                 1.3739
 Frc consts  --      1.3000                 1.3736                 1.4190
 IR Inten    --      3.8100                 3.4744                 1.7988

                     49                     50                     51
                      A                      A                      A
 Frequencies --   1329.5052              1339.9363              1344.3479
 Red. masses --      1.2530                 1.1876                 1.2052
 Frc consts  --      1.3049                 1.2563                 1.2833
 IR Inten    --      3.0555                12.5615                 0.6420

                     52                     53                     54
                      A                      A                      A
 Frequencies --   1354.2520              1364.4983              1399.8134
 Red. masses --      1.1125                 1.2197                 1.4633
 Frc consts  --      1.2022                 1.3379                 1.6894
 IR Inten    --      0.4999                 1.6787                 5.3492

                     55                     56                     57
                      A                      A                      A
 Frequencies --   1411.0952              1417.3511              1422.2040
 Red. masses --      1.5619                 1.4913                 1.5971
 Frc consts  --      1.8324                 1.7651                 1.9033
 IR Inten    --      0.9534                 0.1166                 3.6442

                     58                     59                     60
                      A                      A                      A
 Frequencies --   1427.1266              1427.8854              1470.9857
 Red. masses --      1.7416                 1.3900                 1.0968
 Frc consts  --      2.0899                 1.6698                 1.3983
 IR Inten    --     43.6036                17.7612                16.2239

                     61                     62                     63
                      A                      A                      A
 Frequencies --   1493.2522              1496.8454              1499.6883
 Red. masses --      1.0772                 1.0784                 1.0784
 Frc consts  --      1.4152                 1.4236                 1.4289
 IR Inten    --      2.0135                 1.3104                 1.4010

                     64                     65                     66
                      A                      A                      A
 Frequencies --   1504.8631              1509.5751              1512.4552
 Red. masses --      1.0847                 1.0746                 1.0851
 Frc consts  --      1.4473                 1.4429                 1.4625
 IR Inten    --      1.0306                 0.4372                 8.5275

                     67                     68                     69
                      A                      A                      A
 Frequencies --   1514.3691              1517.9010              1524.9710
 Red. masses --      1.0408                 1.0975                 1.0837
 Frc consts  --      1.4062                 1.4899                 1.4849
 IR Inten    --      5.0847                 0.3869                 2.5165

                     70                     71                     72
                      A                      A                      A
 Frequencies --   1841.9834              3012.5980              3015.6400
 Red. masses --      9.6091                 1.0601                 1.0655
 Frc consts  --     19.2090                 5.6686                 5.7090
 IR Inten    --    228.6892                12.8858                 7.8703

                     73                     74                     75
                      A                      A                      A
 Frequencies --   3025.2698              3028.5402              3029.5735
 Red. masses --      1.0618                 1.0641                 1.0667
 Frc consts  --      5.7254                 5.7505                 5.7686
 IR Inten    --     35.9981                30.2324                28.8643

                     76                     77                     78
                      A                      A                      A
 Frequencies --   3032.3840              3037.2570              3045.5673
 Red. masses --      1.0677                 1.0363                 1.0639
 Frc consts  --      5.7847                 5.6322                 5.8141
 IR Inten    --      2.1392                43.3668                23.8448

                     79                     80                     81
                      A                      A                      A
 Frequencies --   3046.9496              3053.6116              3056.6970
 Red. masses --      1.0973                 1.0632                 1.0920
 Frc consts  --      6.0022                 5.8412                 6.0116
 IR Inten    --     15.5228                11.9236                 4.5767

                     82                     83                     84
                      A                      A                      A
 Frequencies --   3065.9047              3072.9469              3080.4156
 Red. masses --      1.0963                 1.1019                 1.0983
 Frc consts  --      6.0717                 6.1305                 6.1400
 IR Inten    --     45.1843                61.9100                10.0558

                     85                     86                     87
                      A                      A                      A
 Frequencies --   3081.5539              3088.0086              3103.3850
 Red. masses --      1.1010                 1.0971                 1.1035
 Frc consts  --      6.1601                 6.1641                 6.2617
 IR Inten    --     79.7978                16.8797                50.7823

                     88                     89                     90
                      A                      A                      A
 Frequencies --   3106.3620              3111.8318              3751.4818
 Red. masses --      1.1028                 1.1018                 1.0641
 Frc consts  --      6.2700                 6.2863                 8.8231
 IR Inten    --     66.8734                43.9380                47.7862

 - Thermochemistry -
 -------------------
 Temperature   298.150 Kelvin.  Pressure   1.00000 Atm.
 Atom     1 has atomic number  8 and mass  15.99491

 Molecular mass:   172.14633 amu.
 Principal axes and moments of inertia in atomic units:
                           1         2         3
     Eigenvalues --   630.435817576.456757889.69287
           X            1.00000   0.00185   0.00216
           Y           -0.00190   0.99976   0.02173
           Z           -0.00212  -0.02173   0.99976
 This molecule is an asymmetric top.
 Rotational symmetry number  1.
 Warning -- assumption of classical behavior for rotation
           may cause significant error
 Rotational temperatures (Kelvin)      0.13739     0.01143     0.01098
 Rotational constants (GHZ):           2.86269     0.23820     0.22875
 Zero-point vibrational energy     765358.2 (Joules/Mol)
                                  182.92500 (Kcal/Mol)
 Warning -- explicit consideration of  19 degrees of freedom as
           vibrations may cause significant error
 Vibrational temperatures:     32.85    41.39    56.42    66.34   108.35
          (Kelvin)            135.13   160.92   282.97   304.35   347.34
                              356.94   380.77   420.13   428.19   494.92
                              649.34   743.87   753.59   792.91   894.85
                              977.69  1038.42  1063.84  1103.98  1174.14
                             1200.88  1219.09  1264.07  1290.68  1338.25
                             1403.82  1424.58  1481.98  1499.69  1523.25
                             1541.67  1574.01  1595.28  1623.55  1643.61
                             1680.93  1735.14  1751.44  1799.59  1843.60
                             1855.62  1894.43  1904.94  1912.86  1927.87
                             1934.22  1948.47  1963.21  2014.02  2030.25
                             2039.25  2046.23  2053.32  2054.41  2116.42
                             2148.46  2153.63  2157.72  2165.16  2171.94
                             2176.09  2178.84  2183.92  2194.09  2650.20
                             4334.46  4338.83  4352.69  4357.39  4358.88
                             4362.92  4369.94  4381.89  4383.88  4393.47
                             4397.91  4411.15  4421.29  4432.03  4433.67
                             4442.96  4465.08  4469.36  4477.23  5397.55

 Zero-point correction=                           0.291510 (Hartree/Particle)
 Thermal correction to Energy=                    0.306182
 Thermal correction to Enthalpy=                  0.307126
 Thermal correction to Gibbs Free Energy=         0.247000
 Sum of electronic and zero-point Energies=           -543.376669
 Sum of electronic and thermal Energies=              -543.361997
 Sum of electronic and thermal Enthalpies=            -543.361053
 Sum of electronic and thermal Free Energies=         -543.421179

                     E (Thermal)             CV                S
                      KCal/Mol        Cal/Mol-Kelvin    Cal/Mol-Kelvin
 Total                  192.132             52.484            126.546
 Electronic               0.000              0.000              0.000
 Translational            0.889              2.981             41.337
 Rotational               0.889              2.981             32.000
 Vibrational            190.354             46.523             53.209
 Vibration     1          0.593              1.985              6.371
 Vibration     2          0.593              1.984              5.913
 Vibration     3          0.594              1.981              5.299
 Vibration     4          0.595              1.979              4.978
 Vibration     5          0.599              1.965              4.010
 Vibration     6          0.603              1.954              3.577
 Vibration     7          0.607              1.940              3.237
 Vibration     8          0.636              1.845              2.164
 Vibration     9          0.643              1.823              2.030
 Vibration    10          0.658              1.777              1.792
 Vibration    11          0.662              1.766              1.744
 Vibration    12          0.671              1.738              1.631
 Vibration    13          0.687              1.689              1.462
 Vibration    14          0.691              1.678              1.430
 Vibration    15          0.723              1.587              1.194
 Vibration    16          0.810              1.358              0.792
 Vibration    17          0.872              1.212              0.617
 Vibration    18          0.879              1.197              0.601
 Vibration    19          0.906              1.137              0.542

 Optimization completed.
    -- Stationary point found.
 Normal termination of Gaussian 16 at Sat Feb  5 08:55:34 2022.

 ----------------------------------------------------------------------
 # M062X/def2tzvp int=(grid=ultrafine) pop=nbo7 polar prop=efg volume g
 uess=read geom=check
 ----------------------------------------------------------------------

 -------
 Ac1.xyz
 -------
 Structure from the checkpoint file:  "Ac1_clust-43.chk"
 Charge =  0 Multiplicity = 1

 SCF Done:  E(RM062X) =  -543.543160015     A.U. after   11 cycles

  Exact polarizability:     156.078       1.052     117.289       3.621      -1.324     104.685
 Approx polarizability:     145.836       0.236     150.175       2.034      -3.715     139.127

 Summary of Natural Population Analysis:

                                     Natural Population
             Natural    ---------------------------------------------
  Atom No    Charge        Core      Valence    Rydberg      Total
 --------------------------------------------------------------------
    O  1   -0.68713      2.00000     6.66517    0.02196     8.68713
    C  2    0.79727      1.99999     3.16583    0.03691     5.20273
    C  3   -0.51118      1.99999     4.49826    0.01293     6.51118
    C  4   -0.39971      1.99999     4.38708    0.01264     6.39971
    C  5   -0.40181      1.99999     4.39039    0.01143     6.40181
    C  6   -0.38599      1.99999     4.37497    0.01103     6.38599
    C  7   -0.40038      1.99999     4.38926    0.01112     6.40038
    C  8   -0.39511      1.99999     4.38391    0.01121     6.39511
    C  9   -0.38793      1.99999     4.37668    0.01126     6.38793
    C 10   -0.39717      1.99999     4.38678    0.01039     6.39717
    C 11   -0.60013      1.99999     4.59160    0.00853     6.60013
    O 12   -0.60199      2.00000     6.57557    0.02642     8.60199
    H 13    0.49271      0.00000     0.50389    0.00340     0.50729
    H 14    0.23103      0.00000     0.76743    0.00153     0.76897
    H 15    0.24080      0.00000     0.75801    0.00119     0.75920
    H 16    0.21667      0.00000     0.78143    0.00190     0.78333
    H 17    0.20376      0.00000     0.79464    0.00160     0.79624
    H 18    0.19119      0.00000     0.80698    0.00184     0.80881
    H 19    0.21707      0.00000     0.78123    0.00169     0.78293
    H 20    0.20045      0.00000     0.79790    0.00165     0.79955
    H 21    0.20318      0.00000     0.79517    0.00165     0.79682
    H 22    0.20354      0.00000     0.79487    0.00159     0.79646
    H 23    0.19265      0.00000     0.80548    0.00187     0.80735
    H 24    0.19402      0.00000     0.80395    0.00204     0.80598
    H 25    0.19750      0.00000     0.80085    0.00165     0.80250
    H 26    0.19157      0.00000     0.80644    0.00199     0.80843
    H 27    0.19816      0.00000     0.80010    0.00174     0.80184
    H 28    0.19361      0.00000     0.80456    0.00183     0.80639
    H 29    0.19522      0.00000     0.80304    0.00174     0.80478
    H 30    0.20040      0.00000     0.79833    0.00127     0.79960
    H 31    0.19968      0.00000     0.79901    0.00131     0.80032
    H 32    0.20804      0.00000     0.79099    0.00097     0.79196
 ====================================================================
 * Total *  0.00000     23.99992    71.77980    0.22028    96.00000

 1\1\GINC-NOTCH075\SP\RM062X\def2TZVP\C10H20O2\U6032257\05-Feb-2022\0\\
 # M062X/def2tzvp int=(grid=ultrafine) pop=nbo7 polar prop=efg volume g
 uess=read geom=check\\Ac1.xyz\\0,1\O,0,6.2865652309,-0.4131747192,0.86
 42114239\C,0,5.0780718441,-0.3572630351,0.2506716789\C,0,5.1585266249,
 -0.8409976024,-1.1801164287\C,0,3.7870485185,-1.0508851761,-1.82258807
 59\C,0,3.0306450592,-2.2504993613,-1.2423096951\C,0,1.6115923503,-2.41
 93225641,-1.8037109704\C,0,1.5157599067,-2.5890979547,-3.3276861743\C,
 0,2.2796753311,-3.8008407413,-3.8730056881\C,0,2.1699492439,-3.9820965

 Normal termination of Gaussian 16 at Sat Feb  5 08:58:46 2022.
 Gaussian 16:  ES64L-G16RevC.01  3-Jul-2019

 --------------------------------------------------------------------
 # M062X/def2tzvp int=(grid=ultrafine) nmr=giao guess=read geom=check
 --------------------------------------------------------------------

 -------
 Ac1.xyz
 -------
 Structure from the checkpoint file:  "Ac1_clust-43.chk"
 Charge =  0 Multiplicity = 1

                         Standard orientation:
 ---------------------------------------------------------------------
 Center     Atomic      Atomic             Coordinates (Angstroms)
 Number     Number       Type             X           Y           Z
 ---------------------------------------------------------------------
      1          8           0        4.986529   -0.963888    0.432854
      2          6           0        3.976007   -0.242790   -0.113842
      3          6           0        2.715429   -1.067445   -0.249903
      4          6           0        1.485064   -0.232099   -0.605114
      5          6           0        1.019090    0.667420    0.544529
      6          6           0       -0.154049    1.586863    0.176085
      7          6           0       -1.425932    0.877485   -0.313409
      8          6           0       -2.025185   -0.104985    0.698969
      9          6           0       -3.305965   -0.800931    0.218425
     10          6           0       -4.505768    0.132448    0.022178
     11          6           0       -5.777653   -0.617366   -0.379777
     12          8           0        4.116730    0.910846   -0.457068
     13          1           0        5.755394   -0.369481    0.457721
     14          1           0        2.569696   -1.626125    0.681811
     15          1           0        2.917683   -1.822632   -1.020359
     16          1           0        1.716473    0.385407   -1.480225
     17          1           0        0.679836   -0.914222   -0.898688
     18          1           0        0.750059    0.040774    1.405057
     19          1           0        1.859985    1.291121    0.865509
     20          1           0       -0.405514    2.200541    1.051100
     21          1           0        0.180546    2.286563   -0.600656
     22          1           0       -2.168012    1.644170   -0.564397
     23          1           0       -1.220191    0.343916   -1.250984
     24          1           0       -2.230325    0.425611    1.639850
     25          1           0       -1.281823   -0.873989    0.942011
     26          1           0       -3.100277   -1.327025   -0.724873
     27          1           0       -3.582237   -1.578177    0.943502
     28          1           0       -4.683517    0.688021    0.953059
     29          1           0       -4.273472    0.884331   -0.741335
     30          1           0       -5.634170   -1.158897   -1.321612
     31          1           0       -6.059811   -1.352582    0.382260
     32          1           0       -6.622621    0.065409   -0.513881
 ---------------------------------------------------------------------

 SCF Done:  E(RM062X) =  -543.543160015     A.U. after    1 cycles

      1  O    Isotropic =   102.1163   Anisotropy =   243.6892

      2  C    Isotropic =    -9.3225   Anisotropy =   123.6828

      3  C    Isotropic =   150.5010   Anisotropy =    36.7504

      4  C    Isotropic =   163.2004   Anisotropy =    14.3475

      5  C    Isotropic =   159.6289   Anisotropy =    27.4601

      6  C    Isotropic =   155.5783   Anisotropy =    12.3023

      7  C    Isotropic =   159.9356   Anisotropy =    21.4980

      8  C    Isotropic =   156.6307   Anisotropy =    19.1816

      9  C    Isotropic =   150.5896   Anisotropy =    28.0379

     10  C    Isotropic =   161.0319   Anisotropy =    16.6131

     11  C    Isotropic =   170.2207   Anisotropy =    28.1500

     12  O    Isotropic =  -160.6961   Anisotropy =   654.9042

     13  H    Isotropic =    25.7111   Anisotropy =    11.7404

     14  H    Isotropic =    29.7244   Anisotropy =     6.3713

     15  H    Isotropic =    29.5017   Anisotropy =     8.5500

     16  H    Isotropic =    30.4522   Anisotropy =     6.8050

     17  H    Isotropic =    30.5379   Anisotropy =     7.5058

     18  H    Isotropic =    30.8281   Anisotropy =     5.3363

     19  H    Isotropic =    30.2733   Anisotropy =     7.7765

     20  H    Isotropic =    30.5419   Anisotropy =     8.7620

     21  H    Isotropic =    30.3386   Anisotropy =     8.8130

     22  H    Isotropic =    30.3366   Anisotropy =     7.9534

     23  H    Isotropic =    30.8386   Anisotropy =     4.7776

     24  H    Isotropic =    31.0970   Anisotropy =     6.4355

     25  H    Isotropic =    30.2903   Anisotropy =     7.9997

     26  H    Isotropic =    30.8272   Anisotropy =     5.3620

     27  H    Isotropic =    30.4697   Anisotropy =     7.3567

     28  H    Isotropic =    30.9441   Anisotropy =     6.9796

     29  H    Isotropic =    30.3151   Anisotropy =     5.9550

     30  H    Isotropic =    31.1113   Anisotropy =     8.6076

     31  H    Isotropic =    31.0810   Anisotropy =     8.8969

     32  H    Isotropic =    30.7428   Anisotropy =    10.9914

 The electronic state is 1-A.
 Alpha  occ. eigenvalues --  -19.67576 -19.62240 -10.68057 -10.55570 -10.53687
 Alpha  occ. eigenvalues --  -10.52773 -10.52738 -10.52736 -10.52705 -10.52685
 Alpha  occ. eigenvalues --  -10.52588 -10.52129  -1.23654  -1.14113  -0.91902
 Alpha  occ. eigenvalues --   -0.89984  -0.86837  -0.82606  -0.78174  -0.73709
 Alpha  occ. eigenvalues --   -0.70316  -0.67110  -0.65482  -0.62954  -0.58758
 Alpha  occ. eigenvalues --   -0.57773  -0.55709  -0.53620  -0.53300  -0.52207
 Alpha  occ. eigenvalues --   -0.49589  -0.48917  -0.48629  -0.47072  -0.46806
 Alpha  occ. eigenvalues --   -0.45006  -0.43336  -0.43117  -0.41752  -0.40455
 Alpha  occ. eigenvalues --   -0.40176  -0.39295  -0.39105  -0.38068  -0.37222
 Alpha  occ. eigenvalues --   -0.36710  -0.36013  -0.35754
 Alpha virt. eigenvalues --    0.04282   0.05810   0.06789   0.07630   0.08055
 Alpha virt. eigenvalues --    0.08463   0.09851   0.10857   0.11499   0.12808
 Alpha virt. eigenvalues --    0.13414   0.14266   0.14320   0.14911   0.15343

 Mulliken charges:
               1
     1  O   -0.409332
     2  C    0.344435
     3  C   -0.327243
     4  C   -0.279347
     5  C   -0.338698
     6  C   -0.285352
     7  C   -0.332621
     8  C   -0.287864
     9  C   -0.272673
    10  C   -0.252810
    11  C   -0.428793
    12  O   -0.337354
    13  H    0.334507
    14  H    0.173854
    15  H    0.176013
    16  H    0.169189
    17  H    0.150539
    18  H    0.156446
    19  H    0.173874
    20  H    0.149867
    21  H    0.157506
    22  H    0.152516
    23  H    0.159748
    24  H    0.151728
    25  H    0.143450
    26  H    0.141133
    27  H    0.139729
    28  H    0.131622
    29  H    0.131979
    30  H    0.136021
    31  H    0.136525
    32  H    0.141404
 Sum of Mulliken charges =  -0.00000

 Dipole moment (field-independent basis, Debye):
    X=             -0.2821    Y=             -1.2985    Z=              0.3982  Tot=              1.3871
 Quadrupole moment (field-independent basis, Debye-Ang):
   XX=            -75.2255   YY=            -80.2682   ZZ=            -77.2728
   XY=             -4.8120   XZ=              1.9306   YZ=              1.9793

 1\1\GINC-NOTCH075\SP\RM062X\def2TZVP\C10H20O2\U6032257\05-Feb-2022\0\\
 # M062X/def2tzvp int=(grid=ultrafine) nmr=giao guess=read geom=check\\
 Ac1.xyz\\0,1\O,0,6.2865652309,-0.4131747192,0.8642114239\C,0,5.0780718
 441,-0.3572630351,0.2506716789\C,0,5.1585266249,-0.8409976024,-1.18011
 64287\C,0,3.7870485185,-1.0508851761,-1.8225880759\C,0,3.0306450592,-2
 .2504993613,-1.2423096951\C,0,1.6115923503,-2.4193225641,-1.8037109704
 \C,0,1.5157599067,-2.5890979547,-3.3276861743\C,0,2.2796753311,-3.8008
 407413,-3.8730056881\C,0,2.1699492439,-3.982096591,-5.3931263311\C,0,0

 Normal termination of Gaussian 16 at Sat Feb  5 09:00:05 2022.
