 Gaussian 16, Revision C.01,

 ----------------------------------------------------------------------
 # B3LYP/6-31G(d,p) empiricaldispersion=GD3BJ int=(grid=ultrafine) opt
 freq=noraman
 ----------------------------------------------------------------------

 -------
 Ac1.xyz
 -------
 Symbolic Z-matrix:
 Charge =  0 Multiplicity = 1

 SCF Done:  E(RB3LYP) =  -543.661218900     A.U. after   13 cycles
 SCF Done:  E(RB3LYP) =  -543.663090395     A.U. after   12 cycles
 SCF Done:  E(RB3LYP) =  -543.662582543     A.U. after   12 cycles
 SCF Done:  E(RB3LYP) =  -543.663352955     A.U. after   11 cycles
 SCF Done:  E(RB3LYP) =  -543.663551232     A.U. after   10 cycles
 SCF Done:  E(RB3LYP) =  -543.663586845     A.U. after    9 cycles
 SCF Done:  E(RB3LYP) =  -543.663591465     A.U. after    9 cycles
 SCF Done:  E(RB3LYP) =  -543.663592149     A.U. after    7 cycles
 SCF Done:  E(RB3LYP) =  -543.663592195     A.U. after    6 cycles
 SCF Done:  E(RB3LYP) =  -543.663592213     A.U. after    6 cycles
 SCF Done:  E(RB3LYP) =  -543.663592229     A.U. after    7 cycles
 SCF Done:  E(RB3LYP) =  -543.663592264     A.U. after    7 cycles
 SCF Done:  E(RB3LYP) =  -543.663592283     A.U. after    7 cycles
 SCF Done:  E(RB3LYP) =  -543.663592293     A.U. after    7 cycles
 Optimization completed.
    -- Stationary point found.
 Normal termination of Gaussian 16 at Thu Feb  3 06:20:40 2022.

 ----------------------------------------------------------------------
 #N Geom=AllCheck Guess=TCheck SCRF=Check GenChk RB3LYP/6-31G(d,p) Freq
 ----------------------------------------------------------------------

 Structure from the checkpoint file:  "Ac1_clust-10.chk"
 -------
 Ac1.xyz
 -------
 Charge =  0 Multiplicity = 1

 SCF Done:  E(RB3LYP) =  -543.663592293     A.U. after    1 cycles

                      1                      2                      3
                      A                      A                      A
 Frequencies --      6.7406                23.1405                34.3777
 Red. masses --      4.3931                 8.0162                 2.6824
 Frc consts  --      0.0001                 0.0025                 0.0019
 IR Inten    --      0.3320                 1.0426                 0.1494

                      4                      5                      6
                      A                      A                      A
 Frequencies --     47.3290                68.1797               107.9562
 Red. masses --      3.0944                 3.2228                 2.1804
 Frc consts  --      0.0041                 0.0088                 0.0150
 IR Inten    --      0.2715                 0.1556                 0.0140

                      7                      8                      9
                      A                      A                      A
 Frequencies --    127.9821               151.0857               177.9610
 Red. masses --      2.3522                 1.7071                 2.4716
 Frc consts  --      0.0227                 0.0230                 0.0461
 IR Inten    --      0.0336                 0.0140                 0.0883

                     10                     11                     12
                      A                      A                      A
 Frequencies --    205.2785               248.7865               262.2120
 Red. masses --      2.6197                 2.7139                 1.3318
 Frc consts  --      0.0650                 0.0990                 0.0540
 IR Inten    --      0.1063                 0.3840                 0.0405

                     13                     14                     15
                      A                      A                      A
 Frequencies --    311.2271               321.1017               399.8269
 Red. masses --      2.8416                 1.9297                 2.4583
 Frc consts  --      0.1622                 0.1172                 0.2315
 IR Inten    --      0.2738                 0.0255                 0.9205

                     16                     17                     18
                      A                      A                      A
 Frequencies --    442.0043               459.5705               474.9292
 Red. masses --      2.7180                 2.2422                 1.9156
 Frc consts  --      0.3129                 0.2790                 0.2546
 IR Inten    --      2.6879                 0.1895                 0.1477

                     19                     20                     21
                      A                      A                      A
 Frequencies --    577.9245               623.1560               725.1049
 Red. masses --      2.2943                 1.6781                 2.4848
 Frc consts  --      0.4515                 0.3839                 0.7697
 IR Inten    --     46.1120                65.6135                48.9239

                     22                     23                     24
                      A                      A                      A
 Frequencies --    745.0415               756.0192               778.0400
 Red. masses --      1.1453                 1.4797                 1.2044
 Frc consts  --      0.3746                 0.4983                 0.4295
 IR Inten    --      2.5130                 7.2359                 5.2497

                     25                     26                     27
                      A                      A                      A
 Frequencies --    813.9216               826.8791               851.1206
 Red. masses --      1.6930                 1.6985                 1.8604
 Frc consts  --      0.6608                 0.6842                 0.7940
 IR Inten    --      1.9299                 0.8060                 3.8650

                     28                     29                     30
                      A                      A                      A
 Frequencies --    887.8777               906.6655               912.8386
 Red. masses --      2.2839                 2.9709                 1.7103
 Frc consts  --      1.0608                 1.4389                 0.8397
 IR Inten    --      1.0567                 3.5624                 0.5137

                     31                     32                     33
                      A                      A                      A
 Frequencies --    980.2497               992.4754              1001.6531
 Red. masses --      1.9064                 1.7789                 1.9896
 Frc consts  --      1.0793                 1.0324                 1.1761
 IR Inten    --      0.3930                 4.5048                 1.1458

                     34                     35                     36
                      A                      A                      A
 Frequencies --   1039.2814              1047.7765              1076.1931
 Red. masses --      1.8696                 1.6290                 2.2326
 Frc consts  --      1.1897                 1.0537                 1.5235
 IR Inten    --     17.1359                 3.8513                19.4266

                     37                     38                     39
                      A                      A                      A
 Frequencies --   1092.4186              1107.9598              1128.5468
 Red. masses --      2.1722                 2.3209                 1.6311
 Frc consts  --      1.5273                 1.6786                 1.2239
 IR Inten    --      4.2714                14.5019                30.9160

                     40                     41                     42
                      A                      A                      A
 Frequencies --   1147.1860              1166.3450              1214.0407
 Red. masses --      1.6626                 1.7801                 1.6164
 Frc consts  --      1.2892                 1.4268                 1.4037
 IR Inten    --      4.1630                27.7497                 8.6201

                     43                     44                     45
                      A                      A                      A
 Frequencies --   1230.1925              1257.2706              1266.3749
 Red. masses --      1.5280                 1.2926                 1.3396
 Frc consts  --      1.3625                 1.2038                 1.2657
 IR Inten    --    102.3568                 2.5560                 5.3153

                     46                     47                     48
                      A                      A                      A
 Frequencies --   1291.0965              1317.0388              1321.6097
 Red. masses --      1.2935                 1.2608                 1.2203
 Frc consts  --      1.2704                 1.2885                 1.2558
 IR Inten    --      0.4329                 1.6446                 4.1031

                     49                     50                     51
                      A                      A                      A
 Frequencies --   1333.0240              1337.5000              1345.6767
 Red. masses --      1.1696                 1.1726                 1.1117
 Frc consts  --      1.2245                 1.2359                 1.1861
 IR Inten    --      3.5361                 1.0945                 2.2736

                     52                     53                     54
                      A                      A                      A
 Frequencies --   1378.9046              1384.8106              1386.3168
 Red. masses --      1.6356                 1.6388                 1.3704
 Frc consts  --      1.8323                 1.8516                 1.5518
 IR Inten    --     29.2498                27.1919                15.5640

                     55                     56                     57
                      A                      A                      A
 Frequencies --   1395.6438              1400.0618              1405.2021
 Red. masses --      1.4389                 1.5177                 1.4220
 Frc consts  --      1.6514                 1.7528                 1.6544
 IR Inten    --      2.7222                 5.2175                 2.5578

                     58                     59                     60
                      A                      A                      A
 Frequencies --   1420.0651              1430.0237              1487.7210
 Red. masses --      1.5533                 1.2714                 1.0906
 Frc consts  --      1.8455                 1.5318                 1.4222
 IR Inten    --      5.1337                 5.0858                 2.4664

                     61                     62                     63
                      A                      A                      A
 Frequencies --   1494.4187              1497.2615              1503.4519
 Red. masses --      1.0863                 1.0824                 1.0671
 Frc consts  --      1.4293                 1.4297                 1.4211
 IR Inten    --      2.6147                 2.8031                 1.5361

                     64                     65                     66
                      A                      A                      A
 Frequencies --   1503.6485              1507.2418              1513.0709
 Red. masses --      1.0841                 1.0899                 1.0865
 Frc consts  --      1.4442                 1.4588                 1.4655
 IR Inten    --      5.6882                 1.0712                 4.7003

                     67                     68                     69
                      A                      A                      A
 Frequencies --   1517.6713              1522.4911              1524.7954
 Red. masses --      1.0574                 1.0876                 1.0698
 Frc consts  --      1.4350                 1.4853                 1.4655
 IR Inten    --      5.4199                 1.9559                 3.7782

                     70                     71                     72
                      A                      A                      A
 Frequencies --   1849.8743              3012.3600              3012.9545
 Red. masses --      9.5744                 1.0603                 1.0638
 Frc consts  --     19.3039                 5.6691                 5.6895
 IR Inten    --    328.2735                 0.6614                 5.1955

                     73                     74                     75
                      A                      A                      A
 Frequencies --   3023.7786              3024.4386              3025.6380
 Red. masses --      1.0660                 1.0618                 1.0648
 Frc consts  --      5.7428                 5.7224                 5.7431
 IR Inten    --     73.2546                21.9754                24.6120

                     76                     77                     78
                      A                      A                      A
 Frequencies --   3029.1333              3040.4386              3048.1268
 Red. masses --      1.0674                 1.0376                 1.0859
 Frc consts  --      5.7703                 5.6513                 5.9446
 IR Inten    --     13.0232                25.1676                30.2567

                     79                     80                     81
                      A                      A                      A
 Frequencies --   3051.8185              3052.5027              3063.1493
 Red. masses --      1.0802                 1.0943                 1.0946
 Frc consts  --      5.9275                 6.0074                 6.0510
 IR Inten    --      4.7107                20.0676                55.0700

                     82                     83                     84
                      A                      A                      A
 Frequencies --   3063.6586              3066.8389              3070.9493
 Red. masses --      1.0979                 1.0811                 1.0890
 Frc consts  --      6.0716                 5.9909                 6.0508
 IR Inten    --      7.5742                52.0892                47.0909

                     85                     86                     87
                      A                      A                      A
 Frequencies --   3090.2888              3108.0854              3117.8074
 Red. masses --      1.0995                 1.1013                 1.1013
 Frc consts  --      6.1865                 6.2684                 6.3074
 IR Inten    --     87.4991                43.4783                56.9427

                     88                     89                     90
                      A                      A                      A
 Frequencies --   3120.4513              3138.9071              3754.6381
 Red. masses --      1.0961                 1.0990                 1.0641
 Frc consts  --      6.2884                 6.3799                 8.8386
 IR Inten    --      3.4267                29.5396                48.3927

 - Thermochemistry -
 -------------------
 Temperature   298.150 Kelvin.  Pressure   1.00000 Atm.
 Atom     1 has atomic number  8 and mass  15.99491

 Molecular mass:   172.14633 amu.
 Principal axes and moments of inertia in atomic units:
                           1         2         3
     Eigenvalues --  1703.167104502.632265748.14304
           X            0.99952   0.03086   0.00010
           Y           -0.03086   0.99948  -0.00980
           Z           -0.00041   0.00979   0.99995
 This molecule is an asymmetric top.
 Rotational symmetry number  1.
 Warning -- assumption of classical behavior for rotation
           may cause significant error
 Rotational temperatures (Kelvin)      0.05085     0.01924     0.01507
 Rotational constants (GHZ):           1.05964     0.40082     0.31397
 Zero-point vibrational energy     765650.9 (Joules/Mol)
                                  182.99495 (Kcal/Mol)
 Warning -- explicit consideration of  19 degrees of freedom as
           vibrations may cause significant error
 Vibrational temperatures:      9.70    33.29    49.46    68.10    98.10
          (Kelvin)            155.32   184.14   217.38   256.05   295.35
                              357.95   377.26   447.79   461.99   575.26
                              635.95   661.22   683.32   831.50   896.58
                             1043.26  1071.95  1087.74  1119.43  1171.05
                             1189.69  1224.57  1277.46  1304.49  1313.37
                             1410.36  1427.95  1441.16  1495.29  1507.52
                             1548.40  1571.75  1594.11  1623.73  1650.54
                             1678.11  1746.73  1769.97  1808.93  1822.03
                             1857.60  1894.93  1901.50  1917.92  1924.36
                             1936.13  1983.94  1992.43  1994.60  2008.02
                             2014.38  2021.77  2043.16  2057.49  2140.50
                             2150.14  2154.23  2163.13  2163.41  2168.58
                             2176.97  2183.59  2190.53  2193.84  2661.56
                             4334.11  4334.97  4350.54  4351.49  4353.22
                             4358.25  4374.51  4385.57  4390.89  4391.87
                             4407.19  4407.92  4412.50  4418.41  4446.24
                             4471.84  4485.83  4489.63  4516.19  5402.09

 Zero-point correction=                           0.291621 (Hartree/Particle)
 Thermal correction to Energy=                    0.306420
 Thermal correction to Enthalpy=                  0.307364
 Thermal correction to Gibbs Free Energy=         0.245484
 Sum of electronic and zero-point Energies=           -543.371971
 Sum of electronic and thermal Energies=              -543.357173
 Sum of electronic and thermal Enthalpies=            -543.356228
 Sum of electronic and thermal Free Energies=         -543.418109

                     E (Thermal)             CV                S
                      KCal/Mol        Cal/Mol-Kelvin    Cal/Mol-Kelvin
 Total                  192.281             52.474            130.238
 Electronic               0.000              0.000              0.000
 Translational            0.889              2.981             41.337
 Rotational               0.889              2.981             32.155
 Vibrational            190.504             46.512             56.745
 Vibration     1          0.593              1.987              8.795
 Vibration     2          0.593              1.985              6.345
 Vibration     3          0.594              1.983              5.559
 Vibration     4          0.595              1.979              4.926
 Vibration     5          0.598              1.969              4.205
 Vibration     6          0.606              1.943              3.305
 Vibration     7          0.611              1.925              2.976
 Vibration     8          0.619              1.901              2.659
 Vibration     9          0.628              1.869              2.350
 Vibration    10          0.640              1.832              2.085
 Vibration    11          0.662              1.765              1.739
 Vibration    12          0.670              1.742              1.647
 Vibration    13          0.700              1.652              1.356
 Vibration    14          0.707              1.633              1.304
 Vibration    15          0.766              1.470              0.963
 Vibration    16          0.802              1.379              0.820
 Vibration    17          0.817              1.340              0.767
 Vibration    18          0.832              1.306              0.724
 Vibration    19          0.934              1.079              0.489

 Optimization completed on the basis of negligible forces.
    -- Stationary point found.
 Normal termination of Gaussian 16 at Thu Feb  3 06:22:08 2022.

 ----------------------------------------------------------------------
 # M062X/def2tzvp int=(grid=ultrafine) pop=nbo7 polar prop=efg volume g
 uess=read geom=check
 ----------------------------------------------------------------------

 -------
 Ac1.xyz
 -------
 Structure from the checkpoint file:  "Ac1_clust-10.chk"
 Charge =  0 Multiplicity = 1

 SCF Done:  E(RM062X) =  -543.537865986     A.U. after   11 cycles

  Exact polarizability:     140.361       0.091     130.437       3.022      -0.711     105.375
 Approx polarizability:     152.457      -1.746     145.129       2.577       0.892     137.830

 Summary of Natural Population Analysis:

                                     Natural Population
             Natural    ---------------------------------------------
  Atom No    Charge        Core      Valence    Rydberg      Total
 --------------------------------------------------------------------
    O  1   -0.69617      2.00000     6.67422    0.02195     8.69617
    C  2    0.79725      1.99999     3.16594    0.03682     5.20275
    C  3   -0.51017      1.99999     4.49637    0.01381     6.51017
    C  4   -0.38914      1.99999     4.37900    0.01015     6.38914
    C  5   -0.39956      1.99999     4.38817    0.01140     6.39956
    C  6   -0.39489      1.99999     4.38419    0.01070     6.39489
    C  7   -0.38688      1.99999     4.37571    0.01118     6.38688
    C  8   -0.40377      1.99999     4.39230    0.01148     6.40377
    C  9   -0.38779      1.99999     4.37665    0.01115     6.38779
    C 10   -0.39016      1.99999     4.37995    0.01022     6.39016
    C 11   -0.60896      1.99999     4.60021    0.00875     6.60896
    O 12   -0.59157      2.00000     6.56538    0.02620     8.59157
    H 13    0.49393      0.00000     0.50268    0.00338     0.50607
    H 14    0.22725      0.00000     0.77107    0.00169     0.77275
    H 15    0.22821      0.00000     0.77024    0.00155     0.77179
    H 16    0.21496      0.00000     0.78328    0.00176     0.78504
    H 17    0.20923      0.00000     0.78922    0.00155     0.79077
    H 18    0.20586      0.00000     0.79250    0.00164     0.79414
    H 19    0.20295      0.00000     0.79544    0.00160     0.79705
    H 20    0.20926      0.00000     0.78938    0.00137     0.79074
    H 21    0.19126      0.00000     0.80683    0.00192     0.80874
    H 22    0.19323      0.00000     0.80484    0.00193     0.80677
    H 23    0.19917      0.00000     0.79904    0.00179     0.80083
    H 24    0.19540      0.00000     0.80272    0.00188     0.80460
    H 25    0.19489      0.00000     0.80303    0.00208     0.80511
    H 26    0.19236      0.00000     0.80568    0.00196     0.80764
    H 27    0.19855      0.00000     0.79979    0.00166     0.80145
    H 28    0.20038      0.00000     0.79811    0.00152     0.79962
    H 29    0.19387      0.00000     0.80433    0.00181     0.80613
    H 30    0.20117      0.00000     0.79769    0.00115     0.79883
    H 31    0.19989      0.00000     0.79879    0.00132     0.80011
    H 32    0.21001      0.00000     0.78904    0.00095     0.78999
 ====================================================================
 * Total *  0.00000     23.99992    71.78177    0.21831    96.00000

 1\1\GINC-NOTCH075\SP\RM062X\def2TZVP\C10H20O2\U6032257\03-Feb-2022\0\\
 # M062X/def2tzvp int=(grid=ultrafine) pop=nbo7 polar prop=efg volume g
 uess=read geom=check\\Ac1.xyz\\0,1\O,0,5.090251728,-0.2309712155,-1.72
 91091289\C,0,4.9902189359,-0.5005813477,-0.4000790711\C,0,3.734122591,
 -1.2739399672,-0.0844004211\C,0,3.724974581,-2.6634657026,-0.747871177
 \C,0,2.4559725856,-3.4716126951,-0.4318672326\C,0,1.139238797,-2.92953
 38208,-1.0221246554\C,0,0.8085599322,-3.3920028356,-2.4492357392\C,0,1
 .7927519682,-2.9543434218,-3.5390008136\C,0,1.3024957533,-3.291955111,

 Normal termination of Gaussian 16 at Thu Feb  3 06:25:38 2022.
 Gaussian 16:  ES64L-G16RevC.01  3-Jul-2019

 --------------------------------------------------------------------
 # M062X/def2tzvp int=(grid=ultrafine) nmr=giao guess=read geom=check
 --------------------------------------------------------------------

 -------
 Ac1.xyz
 -------
 Structure from the checkpoint file:  "Ac1_clust-10.chk"
 Charge =  0 Multiplicity = 1

                         Standard orientation:
 ---------------------------------------------------------------------
 Center     Atomic      Atomic             Coordinates (Angstroms)
 Number     Number       Type             X           Y           Z
 ---------------------------------------------------------------------
      1          8           0        2.210151   -1.900873   -0.531985
      2          6           0        3.124824   -0.941801   -0.227727
      3          6           0        2.509024    0.435209   -0.239864
      4          6           0        1.425871    0.596995    0.842571
      5          6           0        0.790837    1.996981    0.852321
      6          6           0       -0.060863    2.366609   -0.378136
      7          6           0       -1.535944    1.941678   -0.319478
      8          6           0       -1.795240    0.432886   -0.255614
      9          6           0       -3.280512    0.080708   -0.386417
     10          6           0       -3.572171   -1.426187   -0.393291
     11          6           0       -3.188975   -2.143474    0.904608
     12          8           0        4.278057   -1.208635    0.027366
     13          1           0        2.686530   -2.746601   -0.482783
     14          1           0        2.073563    0.600629   -1.231299
     15          1           0        3.316501    1.156613   -0.095092
     16          1           0        0.667664   -0.175383    0.697726
     17          1           0        1.882852    0.409259    1.821655
     18          1           0        0.172509    2.096944    1.753893
     19          1           0        1.598915    2.731700    0.961536
     20          1           0       -0.033180    3.455701   -0.502248
     21          1           0        0.395414    1.956583   -1.288756
     22          1           0       -2.011779    2.422598    0.546788
     23          1           0       -2.044120    2.347297   -1.204793
     24          1           0       -1.411932    0.035449    0.689813
     25          1           0       -1.231077   -0.072089   -1.052968
     26          1           0       -3.837137    0.553771    0.435211
     27          1           0       -3.670181    0.524196   -1.312369
     28          1           0       -4.641791   -1.577671   -0.584364
     29          1           0       -3.043141   -1.890618   -1.236385
     30          1           0       -2.110274   -2.106704    1.085661
     31          1           0       -3.685637   -1.685193    1.767726
     32          1           0       -3.480481   -3.198039    0.874164
 ---------------------------------------------------------------------

 SCF Done:  E(RM062X) =  -543.537865986     A.U. after    1 cycles

      1  O    Isotropic =   104.7541   Anisotropy =   231.2391

      2  C    Isotropic =    -9.7259   Anisotropy =   126.2881

      3  C    Isotropic =   148.1914   Anisotropy =    43.0936

      4  C    Isotropic =   156.5235   Anisotropy =    16.6507

      5  C    Isotropic =   154.0951   Anisotropy =    15.9262

      6  C    Isotropic =   160.0021   Anisotropy =    17.8956

      7  C    Isotropic =   149.0624   Anisotropy =    27.4059

      8  C    Isotropic =   153.6182   Anisotropy =    22.6465

      9  C    Isotropic =   150.0077   Anisotropy =    26.3584

     10  C    Isotropic =   160.7393   Anisotropy =    16.9365

     11  C    Isotropic =   172.3082   Anisotropy =    21.4148

     12  O    Isotropic =  -172.6441   Anisotropy =   618.8626

     13  H    Isotropic =    25.8632   Anisotropy =    10.9349

     14  H    Isotropic =    29.2860   Anisotropy =     2.6070

     15  H    Isotropic =    30.0575   Anisotropy =     7.5002

     16  H    Isotropic =    29.8374   Anisotropy =     7.5345

     17  H    Isotropic =    30.2520   Anisotropy =     7.8812

     18  H    Isotropic =    30.4031   Anisotropy =     6.9037

     19  H    Isotropic =    30.4593   Anisotropy =     9.2957

     20  H    Isotropic =    30.3961   Anisotropy =    10.2819

     21  H    Isotropic =    30.5816   Anisotropy =     5.4640

     22  H    Isotropic =    30.6483   Anisotropy =     6.6006

     23  H    Isotropic =    30.4574   Anisotropy =     7.4958

     24  H    Isotropic =    29.9933   Anisotropy =     6.5373

     25  H    Isotropic =    31.1266   Anisotropy =     5.1823

     26  H    Isotropic =    30.7889   Anisotropy =     6.4917

     27  H    Isotropic =    30.5187   Anisotropy =     7.1162

     28  H    Isotropic =    30.3480   Anisotropy =    10.1464

     29  H    Isotropic =    30.6095   Anisotropy =     7.4760

     30  H    Isotropic =    30.7422   Anisotropy =     7.0402

     31  H    Isotropic =    31.3394   Anisotropy =     8.7970

     32  H    Isotropic =    30.8358   Anisotropy =    10.8330

 The electronic state is 1-A.
 Alpha  occ. eigenvalues --  -19.67421 -19.62001 -10.67820 -10.55278 -10.54394
 Alpha  occ. eigenvalues --  -10.53808 -10.53427 -10.53142 -10.52966 -10.52886
 Alpha  occ. eigenvalues --  -10.52843 -10.52203  -1.23408  -1.13872  -0.92286
 Alpha  occ. eigenvalues --   -0.90169  -0.87026  -0.82767  -0.78502  -0.74031
 Alpha  occ. eigenvalues --   -0.69951  -0.68162  -0.64841  -0.64721  -0.58291
 Alpha  occ. eigenvalues --   -0.57395  -0.55384  -0.54224  -0.52763  -0.51951
 Alpha  occ. eigenvalues --   -0.50296  -0.49833  -0.48995  -0.47368  -0.46467
 Alpha  occ. eigenvalues --   -0.44711  -0.43873  -0.43247  -0.42901  -0.40932
 Alpha  occ. eigenvalues --   -0.40174  -0.39623  -0.39075  -0.38487  -0.37864
 Alpha  occ. eigenvalues --   -0.37016  -0.35996  -0.35342
 Alpha virt. eigenvalues --    0.04394   0.05587   0.06806   0.07269   0.07809
 Alpha virt. eigenvalues --    0.09137   0.09665   0.10822   0.11362   0.11907
 Alpha virt. eigenvalues --    0.12752   0.13261   0.13529   0.14293   0.14598

 Mulliken charges:
               1
     1  O   -0.412372
     2  C    0.330821
     3  C   -0.260723
     4  C   -0.341390
     5  C   -0.296965
     6  C   -0.282985
     7  C   -0.284467
     8  C   -0.325892
     9  C   -0.272550
    10  C   -0.234047
    11  C   -0.447843
    12  O   -0.330664
    13  H    0.335947
    14  H    0.154218
    15  H    0.160145
    16  H    0.177793
    17  H    0.158596
    18  H    0.157280
    19  H    0.158073
    20  H    0.147802
    21  H    0.149092
    22  H    0.150938
    23  H    0.140359
    24  H    0.137717
    25  H    0.153932
    26  H    0.145036
    27  H    0.137780
    28  H    0.135690
    29  H    0.135497
    30  H    0.140958
    31  H    0.138577
    32  H    0.143647
 Sum of Mulliken charges =  -0.00000

 Dipole moment (field-independent basis, Debye):
    X=             -2.1011    Y=              0.5132    Z=             -0.2459  Tot=              2.1768
 Quadrupole moment (field-independent basis, Debye-Ang):
   XX=            -92.8585   YY=            -72.6501   ZZ=            -76.8176
   XY=              2.3801   XZ=             -1.5153   YZ=              0.9924

 1\1\GINC-NOTCH075\SP\RM062X\def2TZVP\C10H20O2\U6032257\03-Feb-2022\0\\
 # M062X/def2tzvp int=(grid=ultrafine) nmr=giao guess=read geom=check\\
 Ac1.xyz\\0,1\O,0,5.090251728,-0.2309712155,-1.7291091289\C,0,4.9902189
 359,-0.5005813477,-0.4000790711\C,0,3.734122591,-1.2739399672,-0.08440
 04211\C,0,3.724974581,-2.6634657026,-0.747871177\C,0,2.4559725856,-3.4
 716126951,-0.4318672326\C,0,1.139238797,-2.9295338208,-1.0221246554\C,
 0,0.8085599322,-3.3920028356,-2.4492357392\C,0,1.7927519682,-2.9543434
 218,-3.5390008136\C,0,1.3024957533,-3.291955111,-4.9506803963\C,0,2.23

 Normal termination of Gaussian 16 at Thu Feb  3 06:27:04 2022.
