 Gaussian 16, Revision C.01,

 ----------------------------------------------------------------------
 # B3LYP/6-31G(d,p) empiricaldispersion=GD3BJ int=(grid=ultrafine) opt
 freq=noraman
 ----------------------------------------------------------------------

 -------
 Ac1.xyz
 -------
 Symbolic Z-matrix:
 Charge =  0 Multiplicity = 1

 SCF Done:  E(RB3LYP) =  -543.664548467     A.U. after   13 cycles
 SCF Done:  E(RB3LYP) =  -543.666276448     A.U. after   12 cycles
 SCF Done:  E(RB3LYP) =  -543.665210761     A.U. after   12 cycles
 SCF Done:  E(RB3LYP) =  -543.666583302     A.U. after   11 cycles
 SCF Done:  E(RB3LYP) =  -543.666598440     A.U. after    9 cycles
 SCF Done:  E(RB3LYP) =  -543.666600443     A.U. after    8 cycles
 SCF Done:  E(RB3LYP) =  -543.666601600     A.U. after    8 cycles
 SCF Done:  E(RB3LYP) =  -543.666602410     A.U. after    9 cycles
 SCF Done:  E(RB3LYP) =  -543.666603593     A.U. after    9 cycles
 SCF Done:  E(RB3LYP) =  -543.666604117     A.U. after    9 cycles
 Optimization completed.
    -- Stationary point found.
 Normal termination of Gaussian 16 at Thu Feb  3 08:58:21 2022.

 ----------------------------------------------------------------------
 #N Geom=AllCheck Guess=TCheck SCRF=Check GenChk RB3LYP/6-31G(d,p) Freq
 ----------------------------------------------------------------------

 Structure from the checkpoint file:  "Ac1_clust-27.chk"
 -------
 Ac1.xyz
 -------
 Charge =  0 Multiplicity = 1

 SCF Done:  E(RB3LYP) =  -543.666604117     A.U. after    1 cycles

                      1                      2                      3
                      A                      A                      A
 Frequencies --     20.1938                22.3307                36.6219
 Red. masses --      4.8212                 8.6599                 2.5851
 Frc consts  --      0.0012                 0.0025                 0.0020
 IR Inten    --      0.2306                 1.2855                 0.0910

                      4                      5                      6
                      A                      A                      A
 Frequencies --     63.6430                84.1857               105.9043
 Red. masses --      3.1263                 2.9262                 2.3266
 Frc consts  --      0.0075                 0.0122                 0.0154
 IR Inten    --      0.2169                 0.0231                 0.1515

                      7                      8                      9
                      A                      A                      A
 Frequencies --    122.2053               133.7594               150.2594
 Red. masses --      2.5108                 2.3192                 1.6541
 Frc consts  --      0.0221                 0.0244                 0.0220
 IR Inten    --      0.0464                 0.0432                 0.0215

                     10                     11                     12
                      A                      A                      A
 Frequencies --    227.6893               255.3146               273.8714
 Red. masses --      1.7537                 2.1883                 2.1109
 Frc consts  --      0.0536                 0.0840                 0.0933
 IR Inten    --      0.0396                 0.0408                 0.1980

                     13                     14                     15
                      A                      A                      A
 Frequencies --    293.8031               315.2167               383.5767
 Red. masses --      2.5549                 2.2495                 2.6574
 Frc consts  --      0.1299                 0.1317                 0.2304
 IR Inten    --      0.3355                 0.1070                 0.1805

                     16                     17                     18
                      A                      A                      A
 Frequencies --    435.9645               461.6176               507.3709
 Red. masses --      2.7512                 2.2391                 2.3919
 Frc consts  --      0.3081                 0.2811                 0.3628
 IR Inten    --      3.5886                 0.3640                 0.8027

                     19                     20                     21
                      A                      A                      A
 Frequencies --    590.9291               622.4186               723.2059
 Red. masses --      2.4990                 1.5702                 1.4567
 Frc consts  --      0.5141                 0.3584                 0.4489
 IR Inten    --     51.2195                68.9617                24.3856

                     22                     23                     24
                      A                      A                      A
 Frequencies --    735.8715               749.0780               766.9863
 Red. masses --      1.4878                 1.3083                 1.2360
 Frc consts  --      0.4747                 0.4325                 0.4284
 IR Inten    --     19.3148                 8.9865                 4.9431

                     25                     26                     27
                      A                      A                      A
 Frequencies --    802.3565               849.5191               869.5097
 Red. masses --      1.2668                 2.2898                 1.9418
 Frc consts  --      0.4805                 0.9736                 0.8650
 IR Inten    --      4.7525                 1.7857                 0.2318

                     28                     29                     30
                      A                      A                      A
 Frequencies --    887.7193               899.2384               916.9704
 Red. masses --      2.3167                 1.6799                 2.3620
 Frc consts  --      1.0757                 0.8003                 1.1702
 IR Inten    --      0.8662                 2.4539                 5.8783

                     31                     32                     33
                      A                      A                      A
 Frequencies --    980.3434               987.2502              1017.8543
 Red. masses --      1.6499                 1.6460                 2.2516
 Frc consts  --      0.9343                 0.9452                 1.3744
 IR Inten    --      3.2360                 0.3063                 3.1759

                     34                     35                     36
                      A                      A                      A
 Frequencies --   1043.0975              1046.2419              1080.2533
 Red. masses --      2.2697                 1.9242                 1.8539
 Frc consts  --      1.4550                 1.2410                 1.2746
 IR Inten    --      8.8616                 1.4228                20.6536

                     37                     38                     39
                      A                      A                      A
 Frequencies --   1093.1336              1104.9633              1115.9555
 Red. masses --      2.0675                 2.3781                 1.3992
 Frc consts  --      1.4556                 1.7107                 1.0266
 IR Inten    --      4.9507                 1.8114                46.4451

                     40                     41                     42
                      A                      A                      A
 Frequencies --   1147.5951              1171.3169              1210.3898
 Red. masses --      1.9434                 1.8095                 1.6428
 Frc consts  --      1.5080                 1.4627                 1.4180
 IR Inten    --      4.5941                19.4767                41.9804

                     43                     44                     45
                      A                      A                      A
 Frequencies --   1226.2458              1265.1157              1273.0419
 Red. masses --      1.6414                 1.3559                 1.3323
 Frc consts  --      1.4542                 1.2786                 1.2722
 IR Inten    --     75.8264                 4.0303                 0.5364

                     46                     47                     48
                      A                      A                      A
 Frequencies --   1295.5807              1304.9084              1321.2663
 Red. masses --      1.2854                 1.2889                 1.1993
 Frc consts  --      1.2712                 1.2931                 1.2336
 IR Inten    --      1.4369                 1.1650                 2.7421

                     49                     50                     51
                      A                      A                      A
 Frequencies --   1334.2026              1337.4757              1343.1018
 Red. masses --      1.1366                 1.1631                 1.0921
 Frc consts  --      1.1921                 1.2259                 1.1608
 IR Inten    --      3.9140                 6.2322                 3.8407

                     52                     53                     54
                      A                      A                      A
 Frequencies --   1362.7453              1384.3952              1386.9214
 Red. masses --      1.3537                 1.9623                 1.3992
 Frc consts  --      1.4811                 2.2159                 1.5857
 IR Inten    --      5.5724                44.4044                11.3051

                     55                     56                     57
                      A                      A                      A
 Frequencies --   1392.9342              1399.3841              1413.9610
 Red. masses --      1.4886                 1.4890                 1.5388
 Frc consts  --      1.7017                 1.7180                 1.8127
 IR Inten    --      2.7072                12.2429                 2.6795

                     58                     59                     60
                      A                      A                      A
 Frequencies --   1419.5866              1430.0789              1487.9495
 Red. masses --      1.5786                 1.2762                 1.0953
 Frc consts  --      1.8743                 1.5378                 1.4288
 IR Inten    --      3.6435                 6.2923                 3.9988

                     61                     62                     63
                      A                      A                      A
 Frequencies --   1495.5922              1497.1085              1503.4374
 Red. masses --      1.0744                 1.0786                 1.0660
 Frc consts  --      1.4159                 1.4243                 1.4196
 IR Inten    --      0.5268                 3.2521                 0.3494

                     64                     65                     66
                      A                      A                      A
 Frequencies --   1506.9827              1508.7663              1515.7819
 Red. masses --      1.0801                 1.0950                 1.0691
 Frc consts  --      1.4453                 1.4686                 1.4472
 IR Inten    --      4.0753                 0.2324                 0.6273

                     67                     68                     69
                      A                      A                      A
 Frequencies --   1518.7309              1523.1041              1525.3641
 Red. masses --      1.0758                 1.0699                 1.0909
 Frc consts  --      1.4620                 1.4624                 1.4955
 IR Inten    --     10.6541                 3.6573                 1.3986

                     70                     71                     72
                      A                      A                      A
 Frequencies --   1849.8171              3014.6226              3019.9672
 Red. masses --      9.5963                 1.0601                 1.0606
 Frc consts  --     19.3470                 5.6761                 5.6991
 IR Inten    --    319.9383                10.1209                 6.4353

                     73                     74                     75
                      A                      A                      A
 Frequencies --   3022.9306              3025.1273              3031.1206
 Red. masses --      1.0607                 1.0650                 1.0608
 Frc consts  --      5.7111                 5.7425                 5.7421
 IR Inten    --     12.2908                23.6597                49.5372

                     76                     77                     78
                      A                      A                      A
 Frequencies --   3032.6578              3038.7348              3040.8190
 Red. masses --      1.0622                 1.0677                 1.0405
 Frc consts  --      5.7559                 5.8087                 5.6685
 IR Inten    --     17.2494                18.9222                31.0640

                     79                     80                     81
                      A                      A                      A
 Frequencies --   3045.9195              3053.6404              3055.8012
 Red. masses --      1.0940                 1.0987                 1.0671
 Frc consts  --      5.9802                 6.0361                 5.8708
 IR Inten    --      9.0642                32.6837                11.5832

                     82                     83                     84
                      A                      A                      A
 Frequencies --   3058.6000              3063.2212              3071.4270
 Red. masses --      1.0993                 1.1016                 1.0995
 Frc consts  --      6.0593                 6.0900                 6.1112
 IR Inten    --      3.2671                27.9467                54.2468

                     85                     86                     87
                      A                      A                      A
 Frequencies --   3080.5875              3100.8072              3108.5089
 Red. masses --      1.1045                 1.0977                 1.1015
 Frc consts  --      6.1756                 6.2183                 6.2712
 IR Inten    --    144.4950                21.0075                45.4023

                     88                     89                     90
                      A                      A                      A
 Frequencies --   3117.3568              3131.4503              3754.7810
 Red. masses --      1.1018                 1.1001                 1.0641
 Frc consts  --      6.3086                 6.3559                 8.8392
 IR Inten    --     50.3556                25.9846                48.7205

 - Thermochemistry -
 -------------------
 Temperature   298.150 Kelvin.  Pressure   1.00000 Atm.
 Atom     1 has atomic number  8 and mass  15.99491

 Molecular mass:   172.14633 amu.
 Principal axes and moments of inertia in atomic units:
                           1         2         3
     Eigenvalues --  1323.634856023.983506779.94222
           X            0.99988   0.01510  -0.00146
           Y           -0.01510   0.99988  -0.00264
           Z            0.00142   0.00266   1.00000
 This molecule is an asymmetric top.
 Rotational symmetry number  1.
 Warning -- assumption of classical behavior for rotation
           may cause significant error
 Rotational temperatures (Kelvin)      0.06544     0.01438     0.01278
 Rotational constants (GHZ):           1.36347     0.29959     0.26619
 Zero-point vibrational energy     765594.4 (Joules/Mol)
                                  182.98145 (Kcal/Mol)
 Warning -- explicit consideration of  19 degrees of freedom as
           vibrations may cause significant error
 Vibrational temperatures:     29.05    32.13    52.69    91.57   121.12
          (Kelvin)            152.37   175.83   192.45   216.19   327.59
                              367.34   394.04   422.72   453.53   551.88
                              627.26   664.16   729.99   850.22   895.52
                             1040.53  1058.76  1077.76  1103.52  1154.41
                             1222.27  1251.03  1277.23  1293.80  1319.32
                             1410.50  1420.43  1464.47  1500.78  1505.31
                             1554.24  1572.78  1589.80  1605.61  1651.13
                             1685.26  1741.48  1764.29  1820.22  1831.62
                             1864.05  1877.47  1901.01  1919.62  1924.33
                             1932.42  1960.69  1991.84  1995.47  2004.12
                             2013.40  2034.37  2042.47  2057.56  2140.83
                             2151.82  2154.01  2163.11  2168.21  2170.78
                             2180.87  2185.12  2191.41  2194.66  2661.47
                             4337.37  4345.06  4349.32  4352.48  4361.11
                             4363.32  4372.06  4375.06  4382.40  4393.51
                             4396.62  4400.64  4407.29  4419.10  4432.28
                             4461.37  4472.45  4485.18  4505.46  5402.29

 Zero-point correction=                           0.291600 (Hartree/Particle)
 Thermal correction to Energy=                    0.306352
 Thermal correction to Enthalpy=                  0.307296
 Thermal correction to Gibbs Free Energy=         0.246631
 Sum of electronic and zero-point Energies=           -543.375005
 Sum of electronic and thermal Energies=              -543.360252
 Sum of electronic and thermal Enthalpies=            -543.359308
 Sum of electronic and thermal Free Energies=         -543.419973

                     E (Thermal)             CV                S
                      KCal/Mol        Cal/Mol-Kelvin    Cal/Mol-Kelvin
 Total                  192.239             52.445            127.680
 Electronic               0.000              0.000              0.000
 Translational            0.889              2.981             41.337
 Rotational               0.889              2.981             32.358
 Vibrational            190.461             46.484             53.985
 Vibration     1          0.593              1.986              6.615
 Vibration     2          0.593              1.985              6.415
 Vibration     3          0.594              1.982              5.434
 Vibration     4          0.597              1.972              4.341
 Vibration     5          0.601              1.960              3.791
 Vibration     6          0.605              1.945              3.343
 Vibration     7          0.610              1.931              3.065
 Vibration     8          0.613              1.920              2.891
 Vibration     9          0.618              1.902              2.669
 Vibration    10          0.651              1.799              1.897
 Vibration    11          0.666              1.754              1.694
 Vibration    12          0.676              1.722              1.572
 Vibration    13          0.689              1.685              1.452
 Vibration    14          0.703              1.645              1.335
 Vibration    15          0.753              1.505              1.025
 Vibration    16          0.796              1.392              0.839
 Vibration    17          0.819              1.335              0.761
 Vibration    18          0.863              1.234              0.640
 Vibration    19          0.948              1.051              0.466

 Optimization completed.
    -- Stationary point found.
 Normal termination of Gaussian 16 at Thu Feb  3 08:59:45 2022.

 ----------------------------------------------------------------------
 # M062X/def2tzvp int=(grid=ultrafine) pop=nbo7 polar prop=efg volume g
 uess=read geom=check
 ----------------------------------------------------------------------

 -------
 Ac1.xyz
 -------
 Structure from the checkpoint file:  "Ac1_clust-27.chk"
 Charge =  0 Multiplicity = 1

 SCF Done:  E(RM062X) =  -543.541799442     A.U. after   11 cycles

  Exact polarizability:     146.757       2.389     121.340      -1.291       2.546     109.710
 Approx polarizability:     152.680       1.818     142.894      -1.091       2.581     139.282

 Summary of Natural Population Analysis:

                                     Natural Population
             Natural    ---------------------------------------------
  Atom No    Charge        Core      Valence    Rydberg      Total
 --------------------------------------------------------------------
    O  1   -0.69553      2.00000     6.67361    0.02193     8.69553
    C  2    0.79674      1.99999     3.16648    0.03679     5.20326
    C  3   -0.50314      1.99999     4.48977    0.01338     6.50314
    C  4   -0.39239      1.99999     4.38143    0.01097     6.39239
    C  5   -0.39519      1.99999     4.38399    0.01120     6.39519
    C  6   -0.38648      1.99999     4.37557    0.01092     6.38648
    C  7   -0.39348      1.99999     4.38231    0.01118     6.39348
    C  8   -0.40326      1.99999     4.39150    0.01176     6.40326
    C  9   -0.38786      1.99999     4.37666    0.01120     6.38786
    C 10   -0.39012      1.99999     4.37990    0.01022     6.39012
    C 11   -0.60891      1.99999     4.60015    0.00877     6.60891
    O 12   -0.59103      2.00000     6.56483    0.02620     8.59103
    H 13    0.49393      0.00000     0.50268    0.00339     0.50607
    H 14    0.22823      0.00000     0.77024    0.00153     0.77177
    H 15    0.22787      0.00000     0.77050    0.00163     0.77213
    H 16    0.20372      0.00000     0.79443    0.00185     0.79628
    H 17    0.21267      0.00000     0.78556    0.00177     0.78733
    H 18    0.19649      0.00000     0.80172    0.00180     0.80351
    H 19    0.20332      0.00000     0.79504    0.00164     0.79668
    H 20    0.20140      0.00000     0.79697    0.00163     0.79860
    H 21    0.20073      0.00000     0.79763    0.00164     0.79927
    H 22    0.20325      0.00000     0.79511    0.00164     0.79675
    H 23    0.19432      0.00000     0.80384    0.00184     0.80568
    H 24    0.19599      0.00000     0.80205    0.00196     0.80401
    H 25    0.19266      0.00000     0.80531    0.00202     0.80734
    H 26    0.19208      0.00000     0.80594    0.00198     0.80792
    H 27    0.19953      0.00000     0.79884    0.00163     0.80047
    H 28    0.20053      0.00000     0.79795    0.00152     0.79947
    H 29    0.19320      0.00000     0.80499    0.00181     0.80680
    H 30    0.20069      0.00000     0.79817    0.00113     0.79931
    H 31    0.20020      0.00000     0.79848    0.00132     0.79980
    H 32    0.20985      0.00000     0.78920    0.00095     0.79015
 ====================================================================
 * Total *  0.00000     23.99992    71.78085    0.21923    96.00000

 1\1\GINC-NOTCH075\SP\RM062X\def2TZVP\C10H20O2\U6032257\03-Feb-2022\0\\
 # M062X/def2tzvp int=(grid=ultrafine) pop=nbo7 polar prop=efg volume g
 uess=read geom=check\\Ac1.xyz\\0,1\O,0,5.6586363978,-0.2526077864,-1.1
 576072521\C,0,5.3279676664,-0.703853899,0.0814581362\C,0,4.5068175113,
 -1.9682830091,0.0127750069\C,0,3.1668745281,-1.7687482005,-0.715394182
 8\C,0,2.3489023864,-3.061346864,-0.7768454092\C,0,0.9649020219,-2.8910
 129856,-1.4205341233\C,0,0.974108928,-2.3529599581,-2.8590422056\C,0,1
 .7708736815,-3.2093682467,-3.8480230055\C,0,1.6672676577,-2.7009968198

 Normal termination of Gaussian 16 at Thu Feb  3 09:03:03 2022.
 Gaussian 16:  ES64L-G16RevC.01  3-Jul-2019

 --------------------------------------------------------------------
 # M062X/def2tzvp int=(grid=ultrafine) nmr=giao guess=read geom=check
 --------------------------------------------------------------------

 -------
 Ac1.xyz
 -------
 Structure from the checkpoint file:  "Ac1_clust-27.chk"
 Charge =  0 Multiplicity = 1

                         Standard orientation:
 ---------------------------------------------------------------------
 Center     Atomic      Atomic             Coordinates (Angstroms)
 Number     Number       Type             X           Y           Z
 ---------------------------------------------------------------------
      1          8           0        3.003678   -1.874093   -0.443004
      2          6           0        3.654032   -0.803416    0.085143
      3          6           0        2.711484    0.106550    0.834376
      4          6           0        1.617604    0.702896   -0.067450
      5          6           0        0.670597    1.621169    0.709479
      6          6           0       -0.387893    2.307106   -0.166817
      7          6           0       -1.304270    1.356187   -0.950972
      8          6           0       -2.087467    0.371362   -0.077430
      9          6           0       -3.068878   -0.485269   -0.883897
     10          6           0       -3.802490   -1.552794   -0.060735
     11          6           0       -4.719442   -0.982590    1.025371
     12          8           0        4.844000   -0.634906   -0.062347
     13          1           0        3.680200   -2.388772   -0.914213
     14          1           0        3.315314    0.893598    1.291595
     15          1           0        2.241240   -0.473904    1.637533
     16          1           0        2.087983    1.265576   -0.884227
     17          1           0        1.059489   -0.115762   -0.531631
     18          1           0        0.180428    1.041985    1.502582
     19          1           0        1.258716    2.394230    1.220635
     20          1           0       -1.006326    2.950192    0.472825
     21          1           0        0.117629    2.976405   -0.875234
     22          1           0       -2.014124    1.958724   -1.532544
     23          1           0       -0.717016    0.794545   -1.689055
     24          1           0       -2.625755    0.931500    0.698108
     25          1           0       -1.392057   -0.292549    0.453395
     26          1           0       -3.806852    0.169970   -1.367973
     27          1           0       -2.519950   -0.977891   -1.697557
     28          1           0       -4.396646   -2.176301   -0.740266
     29          1           0       -3.063567   -2.222847    0.399247
     30          1           0       -4.156401   -0.427062    1.781726
     31          1           0       -5.458654   -0.297627    0.594251
     32          1           0       -5.264732   -1.779225    1.541207
 ---------------------------------------------------------------------

 SCF Done:  E(RM062X) =  -543.541799442     A.U. after    1 cycles

      1  O    Isotropic =   104.1812   Anisotropy =   230.4074

      2  C    Isotropic =    -8.7005   Anisotropy =   126.0239

      3  C    Isotropic =   145.5503   Anisotropy =    40.5768

      4  C    Isotropic =   158.7408   Anisotropy =    20.0142

      5  C    Isotropic =   156.8720   Anisotropy =    28.7352

      6  C    Isotropic =   155.0109   Anisotropy =    12.3294

      7  C    Isotropic =   156.7182   Anisotropy =    29.4042

      8  C    Isotropic =   157.7776   Anisotropy =    19.3948

      9  C    Isotropic =   151.0381   Anisotropy =    25.4995

     10  C    Isotropic =   160.4366   Anisotropy =    17.3636

     11  C    Isotropic =   172.6890   Anisotropy =    21.5256

     12  O    Isotropic =  -171.5307   Anisotropy =   616.3365

     13  H    Isotropic =    25.8523   Anisotropy =    10.9557

     14  H    Isotropic =    29.7674   Anisotropy =     6.6988

     15  H    Isotropic =    29.6996   Anisotropy =     4.7384

     16  H    Isotropic =    30.7791   Anisotropy =     6.2769

     17  H    Isotropic =    29.9055   Anisotropy =     5.4028

     18  H    Isotropic =    30.4666   Anisotropy =     4.6354

     19  H    Isotropic =    30.6396   Anisotropy =     8.3827

     20  H    Isotropic =    30.4096   Anisotropy =     8.8830

     21  H    Isotropic =    30.4334   Anisotropy =     9.2373

     22  H    Isotropic =    30.6487   Anisotropy =     7.9945

     23  H    Isotropic =    30.5022   Anisotropy =     4.8202

     24  H    Isotropic =    30.7236   Anisotropy =     6.4407

     25  H    Isotropic =    30.8320   Anisotropy =     7.0303

     26  H    Isotropic =    30.7903   Anisotropy =     6.6395

     27  H    Isotropic =    30.4429   Anisotropy =     6.4965

     28  H    Isotropic =    30.3134   Anisotropy =     9.8589

     29  H    Isotropic =    30.6664   Anisotropy =     7.4612

     30  H    Isotropic =    30.7907   Anisotropy =     6.6264

     31  H    Isotropic =    31.3418   Anisotropy =     9.0757

     32  H    Isotropic =    30.8488   Anisotropy =    10.9514

 The electronic state is 1-A.
 Alpha  occ. eigenvalues --  -19.67460 -19.62047 -10.67865 -10.55411 -10.54459
 Alpha  occ. eigenvalues --  -10.53679 -10.53344 -10.53045 -10.52992 -10.52922
 Alpha  occ. eigenvalues --  -10.52863 -10.52232  -1.23459  -1.13920  -0.92391
 Alpha  occ. eigenvalues --   -0.90231  -0.87189  -0.82822  -0.78171  -0.73836
 Alpha  occ. eigenvalues --   -0.70315  -0.68387  -0.65239  -0.63955  -0.58413
 Alpha  occ. eigenvalues --   -0.56862  -0.55541  -0.54485  -0.53655  -0.51709
 Alpha  occ. eigenvalues --   -0.51140  -0.49222  -0.48439  -0.47766  -0.45963
 Alpha  occ. eigenvalues --   -0.45102  -0.44008  -0.42859  -0.42208  -0.41458
 Alpha  occ. eigenvalues --   -0.40166  -0.39690  -0.38855  -0.38763  -0.37885
 Alpha  occ. eigenvalues --   -0.37331  -0.36298  -0.35218
 Alpha virt. eigenvalues --    0.04147   0.05674   0.06789   0.07437   0.07710
 Alpha virt. eigenvalues --    0.08604   0.09733   0.10541   0.11203   0.12815
 Alpha virt. eigenvalues --    0.13034   0.13335   0.14297   0.14434   0.15135

 Mulliken charges:
               1
     1  O   -0.411834
     2  C    0.335367
     3  C   -0.271892
     4  C   -0.333218
     5  C   -0.312468
     6  C   -0.278542
     7  C   -0.312191
     8  C   -0.329841
     9  C   -0.264901
    10  C   -0.241375
    11  C   -0.444884
    12  O   -0.331005
    13  H    0.336347
    14  H    0.161473
    15  H    0.162472
    16  H    0.158687
    17  H    0.169634
    18  H    0.162536
    19  H    0.153292
    20  H    0.151471
    21  H    0.152526
    22  H    0.149496
    23  H    0.162297
    24  H    0.152825
    25  H    0.144556
    26  H    0.146647
    27  H    0.138425
    28  H    0.136000
    29  H    0.135301
    30  H    0.141464
    31  H    0.138039
    32  H    0.143298
 Sum of Mulliken charges =  -0.00000

 Dipole moment (field-independent basis, Debye):
    X=             -2.1015    Y=             -0.1093    Z=             -0.0074  Tot=              2.1043
 Quadrupole moment (field-independent basis, Debye-Ang):
   XX=            -94.3315   YY=            -73.6992   ZZ=            -76.0083
   XY=             -2.1448   XZ=             -0.4839   YZ=              1.7858

 1\1\GINC-NOTCH075\SP\RM062X\def2TZVP\C10H20O2\U6032257\03-Feb-2022\0\\
 # M062X/def2tzvp int=(grid=ultrafine) nmr=giao guess=read geom=check\\
 Ac1.xyz\\0,1\O,0,5.6586363978,-0.2526077864,-1.1576072521\C,0,5.327967
 6664,-0.703853899,0.0814581362\C,0,4.5068175113,-1.9682830091,0.012775
 0069\C,0,3.1668745281,-1.7687482005,-0.7153941828\C,0,2.3489023864,-3.
 061346864,-0.7768454092\C,0,0.9649020219,-2.8910129856,-1.4205341233\C
 ,0,0.974108928,-2.3529599581,-2.8590422056\C,0,1.7708736815,-3.2093682
 467,-3.8480230055\C,0,1.6672676577,-2.7009968198,-5.2896187261\C,0,2.5

 Normal termination of Gaussian 16 at Thu Feb  3 09:04:23 2022.
