 Gaussian 16, Revision C.01,

 ----------------------------------------------------------------------
 # B3LYP/6-31G(d,p) empiricaldispersion=GD3BJ int=(grid=ultrafine) opt
 freq=noraman
 ----------------------------------------------------------------------

 -------
 Ac1.xyz
 -------
 Symbolic Z-matrix:
 Charge =  0 Multiplicity = 1

 SCF Done:  E(RB3LYP) =  -543.664812393     A.U. after   13 cycles
 SCF Done:  E(RB3LYP) =  -543.666429545     A.U. after   12 cycles
 SCF Done:  E(RB3LYP) =  -543.665250064     A.U. after   12 cycles
 SCF Done:  E(RB3LYP) =  -543.666714744     A.U. after   10 cycles
 SCF Done:  E(RB3LYP) =  -543.666722769     A.U. after    9 cycles
 SCF Done:  E(RB3LYP) =  -543.666725544     A.U. after    8 cycles
 SCF Done:  E(RB3LYP) =  -543.666725948     A.U. after    7 cycles
 SCF Done:  E(RB3LYP) =  -543.666726185     A.U. after    7 cycles
 SCF Done:  E(RB3LYP) =  -543.666726531     A.U. after    8 cycles
 SCF Done:  E(RB3LYP) =  -543.666726690     A.U. after    7 cycles
 SCF Done:  E(RB3LYP) =  -543.666726750     A.U. after    7 cycles
 Optimization completed.
    -- Stationary point found.
 Normal termination of Gaussian 16 at Sat Feb  5 08:49:01 2022.

 ----------------------------------------------------------------------
 #N Geom=AllCheck Guess=TCheck SCRF=Check GenChk RB3LYP/6-31G(d,p) Freq
 ----------------------------------------------------------------------

 Structure from the checkpoint file:  "Ac1_clust-41.chk"
 -------
 Ac1.xyz
 -------
 Charge =  0 Multiplicity = 1

 SCF Done:  E(RB3LYP) =  -543.666726750     A.U. after    1 cycles

                      1                      2                      3
                      A                      A                      A
 Frequencies --     21.0763                24.4640                35.4614
 Red. masses --      6.0068                 3.5633                 4.0795
 Frc consts  --      0.0016                 0.0013                 0.0030
 IR Inten    --      0.9134                 0.0427                 0.4094

                      4                      5                      6
                      A                      A                      A
 Frequencies --     58.2071                81.9282                98.6382
 Red. masses --      2.1204                 2.1913                 2.6989
 Frc consts  --      0.0042                 0.0087                 0.0155
 IR Inten    --      0.0125                 0.0156                 0.1184

                      7                      8                      9
                      A                      A                      A
 Frequencies --    116.1845               125.6130               134.5300
 Red. masses --      2.6478                 2.6872                 2.5552
 Frc consts  --      0.0211                 0.0250                 0.0272
 IR Inten    --      0.0980                 0.0284                 0.0362

                     10                     11                     12
                      A                      A                      A
 Frequencies --    218.3338               240.3678               263.7744
 Red. masses --      2.5542                 1.3611                 1.4459
 Frc consts  --      0.0717                 0.0463                 0.0593
 IR Inten    --      0.1398                 0.0115                 0.0029

                     13                     14                     15
                      A                      A                      A
 Frequencies --    285.9562               292.3291               350.8587
 Red. masses --      3.3245                 2.3399                 3.4350
 Frc consts  --      0.1602                 0.1178                 0.2491
 IR Inten    --      0.1035                 0.1741                 1.4383

                     16                     17                     18
                      A                      A                      A
 Frequencies --    418.9357               449.1146               554.4269
 Red. masses --      3.0103                 2.8124                 2.2362
 Frc consts  --      0.3113                 0.3342                 0.4050
 IR Inten    --      2.0192                 1.9702                 4.4216

                     19                     20                     21
                      A                      A                      A
 Frequencies --    589.1727               626.6078               731.4305
 Red. masses --      2.7552                 1.4994                 1.9778
 Frc consts  --      0.5635                 0.3469                 0.6234
 IR Inten    --     48.9244                71.7100                42.8884

                     22                     23                     24
                      A                      A                      A
 Frequencies --    739.0786               747.1327               770.6315
 Red. masses --      1.2437                 1.1536                 1.3059
 Frc consts  --      0.4003                 0.3794                 0.4569
 IR Inten    --      1.2590                 7.6271                 0.8380

                     25                     26                     27
                      A                      A                      A
 Frequencies --    789.0786               841.4360               852.5636
 Red. masses --      1.3858                 1.6265                 1.7147
 Frc consts  --      0.5084                 0.6785                 0.7343
 IR Inten    --      3.6416                 0.2546                 1.5720

                     28                     29                     30
                      A                      A                      A
 Frequencies --    885.8964               905.9547               936.8279
 Red. masses --      2.9201                 1.6409                 1.7159
 Frc consts  --      1.3503                 0.7935                 0.8873
 IR Inten    --      5.5899                 0.1155                 1.9576

                     31                     32                     33
                      A                      A                      A
 Frequencies --    976.5755              1013.4101              1032.0202
 Red. masses --      1.5413                 2.0917                 2.6885
 Frc consts  --      0.8661                 1.2657                 1.6871
 IR Inten    --      3.7998                 1.0583                 1.8613

                     34                     35                     36
                      A                      A                      A
 Frequencies --   1051.0585              1055.3975              1065.3601
 Red. masses --      2.2654                 2.7002                 1.8143
 Frc consts  --      1.4745                 1.7720                 1.2133
 IR Inten    --     13.8196                 0.4883                15.6676

                     37                     38                     39
                      A                      A                      A
 Frequencies --   1080.3676              1102.6242              1110.8287
 Red. masses --      1.9786                 2.2145                 1.4480
 Frc consts  --      1.3607                 1.5863                 1.0527
 IR Inten    --     15.3991                 3.0994                51.9824

                     40                     41                     42
                      A                      A                      A
 Frequencies --   1152.2403              1177.3336              1217.1655
 Red. masses --      1.8557                 1.9936                 1.7627
 Frc consts  --      1.4516                 1.6281                 1.5386
 IR Inten    --      1.8052                15.5495               113.6066

                     43                     44                     45
                      A                      A                      A
 Frequencies --   1239.2571              1261.5799              1273.7016
 Red. masses --      1.4691                 1.3237                 1.3556
 Frc consts  --      1.3293                 1.2413                 1.2957
 IR Inten    --     25.2451                 1.0850                 5.0976

                     46                     47                     48
                      A                      A                      A
 Frequencies --   1301.0926              1311.8509              1323.4538
 Red. masses --      1.2936                 1.2983                 1.2762
 Frc consts  --      1.2902                 1.3164                 1.3170
 IR Inten    --      2.9955                 0.0226                 2.9903

                     49                     50                     51
                      A                      A                      A
 Frequencies --   1330.8728              1340.3388              1343.4313
 Red. masses --      1.2427                 1.0833                 1.2006
 Frc consts  --      1.2968                 1.1467                 1.2767
 IR Inten    --      1.4412                 0.2632                 1.1190

                     52                     53                     54
                      A                      A                      A
 Frequencies --   1347.6177              1364.3831              1382.5967
 Red. masses --      1.1673                 1.1551                 2.0324
 Frc consts  --      1.2490                 1.2669                 2.2890
 IR Inten    --      4.9411                 2.4980                68.5723

                     55                     56                     57
                      A                      A                      A
 Frequencies --   1397.2467              1410.9175              1415.5058
 Red. masses --      1.6232                 1.5723                 1.5617
 Frc consts  --      1.8671                 1.8441                 1.8436
 IR Inten    --     10.6074                 2.1856                 0.5406

                     58                     59                     60
                      A                      A                      A
 Frequencies --   1420.3137              1427.6077              1488.4499
 Red. masses --      1.5508                 1.2471                 1.0955
 Frc consts  --      1.8432                 1.4975                 1.4300
 IR Inten    --      1.7028                 0.6923                 5.4346

                     61                     62                     63
                      A                      A                      A
 Frequencies --   1495.4905              1500.0650              1501.5374
 Red. masses --      1.0741                 1.0774                 1.0766
 Frc consts  --      1.4153                 1.4284                 1.4301
 IR Inten    --      0.7943                 1.3781                 0.3430

                     64                     65                     66
                      A                      A                      A
 Frequencies --   1507.8934              1509.7890              1513.8508
 Red. masses --      1.0899                 1.0683                 1.0849
 Frc consts  --      1.4601                 1.4348                 1.4649
 IR Inten    --      0.2750                 1.2212                 4.1533

                     67                     68                     69
                      A                      A                      A
 Frequencies --   1514.3947              1524.0955              1524.9420
 Red. masses --      1.0510                 1.0987                 1.0833
 Frc consts  --      1.4202                 1.5036                 1.4843
 IR Inten    --      3.3399                 4.3808                 2.5629

                     70                     71                     72
                      A                      A                      A
 Frequencies --   1849.2704              3012.1464              3014.6147
 Red. masses --      9.5874                 1.0598                 1.0616
 Frc consts  --     19.3176                 5.6654                 5.6844
 IR Inten    --    306.8197                 4.6873                 6.9113

                     73                     74                     75
                      A                      A                      A
 Frequencies --   3021.4048              3022.2605              3026.1209
 Red. masses --      1.0640                 1.0621                 1.0630
 Frc consts  --      5.7226                 5.7156                 5.7355
 IR Inten    --     14.7065                31.3869                58.3751

                     76                     77                     78
                      A                      A                      A
 Frequencies --   3027.8688              3037.6772              3039.8524
 Red. masses --      1.0639                 1.0364                 1.0633
 Frc consts  --      5.7466                 5.6344                 5.7892
 IR Inten    --     24.3530                39.6082                24.4010

                     79                     80                     81
                      A                      A                      A
 Frequencies --   3047.2132              3049.1696              3049.5492
 Red. masses --      1.0965                 1.0968                 1.0998
 Frc consts  --      5.9990                 6.0081                 6.0260
 IR Inten    --      9.3109                11.6480                 4.1574

                     82                     83                     84
                      A                      A                      A
 Frequencies --   3057.4097              3068.8355              3073.8470
 Red. masses --      1.0640                 1.1005                 1.1010
 Frc consts  --      5.8599                 6.1063                 6.1292
 IR Inten    --     22.8316                 5.7495                51.6046

                     85                     86                     87
                      A                      A                      A
 Frequencies --   3077.5152              3092.7846              3106.7895
 Red. masses --      1.1032                 1.1019                 1.1028
 Frc consts  --      6.1562                 6.2098                 6.2717
 IR Inten    --     95.3178                43.9067                64.5289

                     88                     89                     90
                      A                      A                      A
 Frequencies --   3112.1001              3130.8045              3754.0065
 Red. masses --      1.1019                 1.1006                 1.0641
 Frc consts  --      6.2878                 6.3561                 8.8355
 IR Inten    --     42.1157                22.6493                49.9459

 - Thermochemistry -
 -------------------
 Temperature   298.150 Kelvin.  Pressure   1.00000 Atm.
 Atom     1 has atomic number  8 and mass  15.99491

 Molecular mass:   172.14633 amu.
 Principal axes and moments of inertia in atomic units:
                           1         2         3
     Eigenvalues --   636.644418926.938969050.30780
           X            0.99998  -0.00622  -0.00055
           Y            0.00624   0.99711   0.07569
           Z            0.00008  -0.07569   0.99713
 This molecule is an asymmetric top.
 Rotational symmetry number  1.
 Warning -- assumption of classical behavior for rotation
           may cause significant error
 Rotational temperatures (Kelvin)      0.13605     0.00970     0.00957
 Rotational constants (GHZ):           2.83477     0.20217     0.19941
 Zero-point vibrational energy     764796.0 (Joules/Mol)
                                  182.79064 (Kcal/Mol)
 Warning -- explicit consideration of  19 degrees of freedom as
           vibrations may cause significant error
 Vibrational temperatures:     30.32    35.20    51.02    83.75   117.88
          (Kelvin)            141.92   167.16   180.73   193.56   314.13
                              345.84   379.51   411.43   420.60   504.81
                              602.76   646.18   797.70   847.69   901.55
                             1052.37  1063.37  1074.96  1108.77  1135.31
                             1210.64  1226.65  1274.61  1303.47  1347.89
                             1405.07  1458.07  1484.85  1512.24  1518.48
                             1532.82  1554.41  1586.43  1598.23  1657.82
                             1693.92  1751.23  1783.01  1815.13  1832.57
                             1871.98  1887.46  1904.15  1914.83  1928.45
                             1932.90  1938.92  1963.04  1989.25  2010.33
                             2030.00  2036.60  2043.51  2054.01  2141.55
                             2151.68  2158.26  2160.38  2169.52  2172.25
                             2178.09  2178.88  2192.83  2194.05  2660.69
                             4333.81  4337.36  4347.13  4348.36  4353.91
                             4356.43  4370.54  4373.67  4384.26  4387.07
                             4387.62  4398.93  4415.37  4422.58  4427.86
                             4449.83  4469.98  4477.62  4504.53  5401.18

 Zero-point correction=                           0.291295 (Hartree/Particle)
 Thermal correction to Energy=                    0.306237
 Thermal correction to Enthalpy=                  0.307181
 Thermal correction to Gibbs Free Energy=         0.246005
 Sum of electronic and zero-point Energies=           -543.375431
 Sum of electronic and thermal Energies=              -543.360490
 Sum of electronic and thermal Enthalpies=            -543.359546
 Sum of electronic and thermal Free Energies=         -543.420721

                     E (Thermal)             CV                S
                      KCal/Mol        Cal/Mol-Kelvin    Cal/Mol-Kelvin
 Total                  192.167             52.588            128.755
 Electronic               0.000              0.000              0.000
 Translational            0.889              2.981             41.337
 Rotational               0.889              2.981             32.309
 Vibrational            190.389             46.627             55.109
 Vibration     1          0.593              1.985              6.530
 Vibration     2          0.593              1.985              6.234
 Vibration     3          0.594              1.982              5.498
 Vibration     4          0.596              1.974              4.517
 Vibration     5          0.600              1.962              3.844
 Vibration     6          0.604              1.950              3.481
 Vibration     7          0.608              1.936              3.163
 Vibration     8          0.611              1.927              3.012
 Vibration     9          0.613              1.919              2.880
 Vibration    10          0.646              1.813              1.973
 Vibration    11          0.657              1.779              1.800
 Vibration    12          0.670              1.739              1.637
 Vibration    13          0.684              1.700              1.498
 Vibration    14          0.688              1.688              1.460
 Vibration    15          0.728              1.573              1.162
 Vibration    16          0.782              1.429              0.896
 Vibration    17          0.808              1.363              0.798
 Vibration    18          0.910              1.130              0.535
 Vibration    19          0.946              1.055              0.469

 Optimization completed.
    -- Stationary point found.
 Normal termination of Gaussian 16 at Sat Feb  5 08:50:17 2022.

 ----------------------------------------------------------------------
 # M062X/def2tzvp int=(grid=ultrafine) pop=nbo7 polar prop=efg volume g
 uess=read geom=check
 ----------------------------------------------------------------------

 -------
 Ac1.xyz
 -------
 Structure from the checkpoint file:  "Ac1_clust-41.chk"
 Charge =  0 Multiplicity = 1

 SCF Done:  E(RM062X) =  -543.541901729     A.U. after   11 cycles

  Exact polarizability:     161.216      -1.714     111.350      -3.188      -2.783     109.947
 Approx polarizability:     148.406       0.884     141.762      -3.732      -5.334     144.746

 Summary of Natural Population Analysis:

                                     Natural Population
             Natural    ---------------------------------------------
  Atom No    Charge        Core      Valence    Rydberg      Total
 --------------------------------------------------------------------
    O  1   -0.69488      2.00000     6.67292    0.02197     8.69488
    C  2    0.79678      1.99999     3.16643    0.03681     5.20322
    C  3   -0.50351      1.99999     4.49029    0.01323     6.50351
    C  4   -0.38234      1.99999     4.37194    0.01041     6.38234
    C  5   -0.39506      1.99999     4.38381    0.01126     6.39506
    C  6   -0.38549      1.99999     4.37456    0.01094     6.38549
    C  7   -0.39351      1.99999     4.38238    0.01114     6.39351
    C  8   -0.39409      1.99999     4.38303    0.01106     6.39409
    C  9   -0.38752      1.99999     4.37627    0.01125     6.38752
    C 10   -0.39713      1.99999     4.38679    0.01035     6.39713
    C 11   -0.60029      1.99999     4.59174    0.00855     6.60029
    O 12   -0.59146      2.00000     6.56526    0.02621     8.59146
    H 13    0.49381      0.00000     0.50279    0.00340     0.50619
    H 14    0.22751      0.00000     0.77087    0.00162     0.77249
    H 15    0.22824      0.00000     0.77026    0.00150     0.77176
    H 16    0.21110      0.00000     0.78710    0.00180     0.78890
    H 17    0.20324      0.00000     0.79496    0.00180     0.79676
    H 18    0.19777      0.00000     0.80039    0.00184     0.80223
    H 19    0.19497      0.00000     0.80309    0.00194     0.80503
    H 20    0.20062      0.00000     0.79771    0.00168     0.79938
    H 21    0.19401      0.00000     0.80403    0.00196     0.80599
    H 22    0.19492      0.00000     0.80322    0.00186     0.80508
    H 23    0.20079      0.00000     0.79751    0.00170     0.79921
    H 24    0.19369      0.00000     0.80444    0.00187     0.80631
    H 25    0.19964      0.00000     0.79864    0.00172     0.80036
    H 26    0.19189      0.00000     0.80610    0.00201     0.80811
    H 27    0.19904      0.00000     0.79923    0.00173     0.80096
    H 28    0.19333      0.00000     0.80483    0.00184     0.80667
    H 29    0.19508      0.00000     0.80322    0.00170     0.80492
    H 30    0.20807      0.00000     0.79096    0.00097     0.79193
    H 31    0.20070      0.00000     0.79803    0.00127     0.79930
    H 32    0.20010      0.00000     0.79860    0.00130     0.79990
 ====================================================================
 * Total *  0.00000     23.99992    71.78139    0.21869    96.00000

 1\1\GINC-NOTCH078\SP\RM062X\def2TZVP\C10H20O2\U6032257\05-Feb-2022\0\\
 # M062X/def2tzvp int=(grid=ultrafine) pop=nbo7 polar prop=efg volume g
 uess=read geom=check\\Ac1.xyz\\0,1\O,0,6.0084171896,-0.7002658295,1.07
 40181024\C,0,5.245853644,0.1967626508,0.3950862704\C,0,4.7634287108,-0
 .3647961511,-0.9201246813\C,0,3.8416096156,-1.5834290791,-0.7414834396
 \C,0,3.3418512314,-2.1351465419,-2.0785475432\C,0,2.414276958,-3.34325
 09629,-1.9113614965\C,0,1.9649607459,-3.9795482398,-3.2332455555\C,0,1
 .101510327,-3.0622491277,-4.1083020171\C,0,0.5082784562,-3.7528017482,

 Normal termination of Gaussian 16 at Sat Feb  5 08:53:14 2022.
 Gaussian 16:  ES64L-G16RevC.01  3-Jul-2019

 --------------------------------------------------------------------
 # M062X/def2tzvp int=(grid=ultrafine) nmr=giao guess=read geom=check
 --------------------------------------------------------------------

 -------
 Ac1.xyz
 -------
 Structure from the checkpoint file:  "Ac1_clust-41.chk"
 Charge =  0 Multiplicity = 1

                         Standard orientation:
 ---------------------------------------------------------------------
 Center     Atomic      Atomic             Coordinates (Angstroms)
 Number     Number       Type             X           Y           Z
 ---------------------------------------------------------------------
      1          8           0       -4.868254    0.416806   -0.942679
      2          6           0       -4.434691   -0.482585   -0.020600
      3          6           0       -2.964478   -0.782381   -0.183254
      4          6           0       -2.078476    0.453329    0.050739
      5          6           0       -0.588607    0.136777   -0.097502
      6          6           0        0.303557    1.358936    0.143814
      7          6           0        1.798835    1.101619   -0.084368
      8          6           0        2.415544    0.088300    0.888034
      9          6           0        3.940428   -0.038692    0.775339
     10          6           0        4.432743   -0.590260   -0.567358
     11          6           0        5.950474   -0.780353   -0.607606
     12          8           0       -5.170291   -0.950230    0.820025
     13          1           0       -5.810174    0.560199   -0.750468
     14          1           0       -2.799897   -1.159721   -1.199678
     15          1           0       -2.716600   -1.579130    0.521665
     16          1           0       -2.365709    1.239861   -0.655629
     17          1           0       -2.270716    0.849123    1.056177
     18          1           0       -0.320850   -0.666654    0.599786
     19          1           0       -0.399112   -0.257194   -1.106150
     20          1           0       -0.024454    2.171154   -0.518114
     21          1           0        0.149583    1.720681    1.170086
     22          1           0        1.948427    0.765755   -1.118446
     23          1           0        2.340687    2.052414    0.008438
     24          1           0        1.964535   -0.900335    0.732648
     25          1           0        2.156489    0.383618    1.913847
     26          1           0        4.400869    0.943768    0.952276
     27          1           0        4.303842   -0.693060    1.578893
     28          1           0        3.935251   -1.549677   -0.765054
     29          1           0        4.130721    0.082096   -1.379327
     30          1           0        6.281795   -1.174237   -1.573629
     31          1           0        6.470505    0.169330   -0.438841
     32          1           0        6.281195   -1.478739    0.169329
 ---------------------------------------------------------------------

 SCF Done:  E(RM062X) =  -543.541901729     A.U. after    1 cycles

      1  O    Isotropic =   104.4309   Anisotropy =   230.1582

      2  C    Isotropic =    -8.4744   Anisotropy =   126.4032

      3  C    Isotropic =   145.4760   Anisotropy =    41.7584

      4  C    Isotropic =   154.3838   Anisotropy =    29.1427

      5  C    Isotropic =   152.6760   Anisotropy =    30.8113

      6  C    Isotropic =   151.7952   Anisotropy =    25.9338

      7  C    Isotropic =   154.2590   Anisotropy =    22.8078

      8  C    Isotropic =   153.9492   Anisotropy =    22.9874

      9  C    Isotropic =   149.9615   Anisotropy =    27.6760

     10  C    Isotropic =   160.8445   Anisotropy =    16.2582

     11  C    Isotropic =   170.1566   Anisotropy =    28.4065

     12  O    Isotropic =  -170.5321   Anisotropy =   616.2529

     13  H    Isotropic =    25.8520   Anisotropy =    11.1412

     14  H    Isotropic =    29.6269   Anisotropy =     4.7752

     15  H    Isotropic =    29.7464   Anisotropy =     5.6490

     16  H    Isotropic =    30.1016   Anisotropy =     6.6627

     17  H    Isotropic =    30.4895   Anisotropy =     5.3099

     18  H    Isotropic =    30.4468   Anisotropy =     6.1605

     19  H    Isotropic =    30.9999   Anisotropy =     4.7483

     20  H    Isotropic =    30.3846   Anisotropy =     7.2968

     21  H    Isotropic =    30.7071   Anisotropy =     5.9168

     22  H    Isotropic =    30.4473   Anisotropy =     5.4960

     23  H    Isotropic =    30.7206   Anisotropy =     7.4406

     24  H    Isotropic =    30.4695   Anisotropy =     5.6266

     25  H    Isotropic =    30.7286   Anisotropy =     7.0151

     26  H    Isotropic =    30.7462   Anisotropy =     6.0729

     27  H    Isotropic =    30.4597   Anisotropy =     7.4920

     28  H    Isotropic =    30.9601   Anisotropy =     6.5870

     29  H    Isotropic =    30.3826   Anisotropy =     6.0372

     30  H    Isotropic =    30.7497   Anisotropy =    10.8397

     31  H    Isotropic =    31.1009   Anisotropy =     8.8409

     32  H    Isotropic =    31.0766   Anisotropy =     8.9171

 The electronic state is 1-A.
 Alpha  occ. eigenvalues --  -19.67438 -19.62020 -10.67843 -10.55383 -10.54507
 Alpha  occ. eigenvalues --  -10.53692 -10.53348 -10.53079 -10.52959 -10.52946
 Alpha  occ. eigenvalues --  -10.52865 -10.52255  -1.23441  -1.13894  -0.92301
 Alpha  occ. eigenvalues --   -0.90337  -0.87214  -0.82997  -0.78484  -0.72783
 Alpha  occ. eigenvalues --   -0.69917  -0.68044  -0.66888  -0.63981  -0.58406
 Alpha  occ. eigenvalues --   -0.56895  -0.55426  -0.54389  -0.53262  -0.51864
 Alpha  occ. eigenvalues --   -0.51013  -0.48882  -0.48437  -0.47646  -0.46437
 Alpha  occ. eigenvalues --   -0.45588  -0.43681  -0.42929  -0.41758  -0.41113
 Alpha  occ. eigenvalues --   -0.40321  -0.39859  -0.39283  -0.38819  -0.37608
 Alpha  occ. eigenvalues --   -0.37075  -0.36804  -0.35118
 Alpha virt. eigenvalues --    0.04327   0.06008   0.06683   0.07535   0.08309
 Alpha virt. eigenvalues --    0.08501   0.09416   0.10378   0.11145   0.12471
 Alpha virt. eigenvalues --    0.12758   0.13616   0.13833   0.14712   0.15003

 Mulliken charges:
               1
     1  O   -0.411643
     2  C    0.329274
     3  C   -0.268516
     4  C   -0.309891
     5  C   -0.304219
     6  C   -0.278859
     7  C   -0.296364
     8  C   -0.290461
     9  C   -0.282260
    10  C   -0.254806
    11  C   -0.428880
    12  O   -0.331274
    13  H    0.336285
    14  H    0.161470
    15  H    0.160455
    16  H    0.164858
    17  H    0.152880
    18  H    0.149608
    19  H    0.144688
    20  H    0.145594
    21  H    0.151522
    22  H    0.153101
    23  H    0.147587
    24  H    0.150113
    25  H    0.145715
    26  H    0.143793
    27  H    0.140073
    28  H    0.131123
    29  H    0.134189
    30  H    0.141388
    31  H    0.136332
    32  H    0.137124
 Sum of Mulliken charges =  -0.00000

 Dipole moment (field-independent basis, Debye):
    X=              1.4286    Y=              0.9313    Z=             -1.1641  Tot=              2.0648
 Quadrupole moment (field-independent basis, Debye-Ang):
   XX=            -85.3902   YY=            -78.0245   ZZ=            -79.3966
   XY=             -6.7479   XZ=              7.5277   YZ=              2.1319

 1\1\GINC-NOTCH078\SP\RM062X\def2TZVP\C10H20O2\U6032257\05-Feb-2022\0\\
 # M062X/def2tzvp int=(grid=ultrafine) nmr=giao guess=read geom=check\\
 Ac1.xyz\\0,1\O,0,6.0084171896,-0.7002658295,1.0740181024\C,0,5.2458536
 44,0.1967626508,0.3950862704\C,0,4.7634287108,-0.3647961511,-0.9201246
 813\C,0,3.8416096156,-1.5834290791,-0.7414834396\C,0,3.3418512314,-2.1
 351465419,-2.0785475432\C,0,2.414276958,-3.3432509629,-1.9113614965\C,
 0,1.9649607459,-3.9795482398,-3.2332455555\C,0,1.101510327,-3.06224912
 77,-4.1083020171\C,0,0.5082784562,-3.7528017482,-5.3433371516\C,0,1.54

 Normal termination of Gaussian 16 at Sat Feb  5 08:54:26 2022.
