 Gaussian 16, Revision C.01,

 ----------------------------------------------------------------------
 # B3LYP/6-31G(d,p) empiricaldispersion=GD3BJ int=(grid=ultrafine) opt
 freq=noraman
 ----------------------------------------------------------------------

 -------
 Ac1.xyz
 -------
 Symbolic Z-matrix:
 Charge =  0 Multiplicity = 1

 SCF Done:  E(RB3LYP) =  -543.661565565     A.U. after   13 cycles
 SCF Done:  E(RB3LYP) =  -543.663357677     A.U. after   11 cycles
 SCF Done:  E(RB3LYP) =  -543.662988481     A.U. after   11 cycles
 SCF Done:  E(RB3LYP) =  -543.663636674     A.U. after   11 cycles
 SCF Done:  E(RB3LYP) =  -543.663883090     A.U. after   11 cycles
 SCF Done:  E(RB3LYP) =  -543.663908122     A.U. after   10 cycles
 SCF Done:  E(RB3LYP) =  -543.663916538     A.U. after   10 cycles
 SCF Done:  E(RB3LYP) =  -543.663924089     A.U. after    8 cycles
 SCF Done:  E(RB3LYP) =  -543.663925375     A.U. after    8 cycles
 SCF Done:  E(RB3LYP) =  -543.663925803     A.U. after    8 cycles
 SCF Done:  E(RB3LYP) =  -543.663926180     A.U. after    8 cycles
 SCF Done:  E(RB3LYP) =  -543.663926722     A.U. after    9 cycles
 SCF Done:  E(RB3LYP) =  -543.663927236     A.U. after    9 cycles
 SCF Done:  E(RB3LYP) =  -543.663927328     A.U. after    7 cycles
 Optimization completed.
    -- Stationary point found.
 Normal termination of Gaussian 16 at Thu Feb  3 06:29:47 2022.

 ----------------------------------------------------------------------
 #N Geom=AllCheck Guess=TCheck SCRF=Check GenChk RB3LYP/6-31G(d,p) Freq
 ----------------------------------------------------------------------

 Structure from the checkpoint file:  "Ac1_clust-11.chk"
 -------
 Ac1.xyz
 -------
 Charge =  0 Multiplicity = 1

 SCF Done:  E(RB3LYP) =  -543.663927328     A.U. after    1 cycles

                      1                      2                      3
                      A                      A                      A
 Frequencies --     20.7450                31.6166                36.5110
 Red. masses --      9.6972                 4.2780                 3.0463
 Frc consts  --      0.0025                 0.0025                 0.0024
 IR Inten    --      1.2386                 0.0921                 0.0812

                      4                      5                      6
                      A                      A                      A
 Frequencies --     72.7569                83.9871               106.1216
 Red. masses --      3.1150                 3.5781                 2.3671
 Frc consts  --      0.0097                 0.0149                 0.0157
 IR Inten    --      0.2499                 0.1530                 0.0483

                      7                      8                      9
                      A                      A                      A
 Frequencies --    119.8846               173.1636               180.8885
 Red. masses --      1.8820                 3.2483                 2.5779
 Frc consts  --      0.0159                 0.0574                 0.0497
 IR Inten    --      0.0203                 0.0220                 0.0876

                     10                     11                     12
                      A                      A                      A
 Frequencies --    214.5290               252.6380               285.2267
 Red. masses --      1.4777                 2.5500                 1.5478
 Frc consts  --      0.0401                 0.0959                 0.0742
 IR Inten    --      0.0099                 0.1917                 0.0678

                     13                     14                     15
                      A                      A                      A
 Frequencies --    302.3375               351.4201               401.9165
 Red. masses --      1.8973                 2.3769                 2.1415
 Frc consts  --      0.1022                 0.1729                 0.2038
 IR Inten    --      0.0918                 0.0502                 1.1515

                     16                     17                     18
                      A                      A                      A
 Frequencies --    433.5106               466.3940               536.6758
 Red. masses --      2.5421                 2.2431                 2.2542
 Frc consts  --      0.2815                 0.2875                 0.3825
 IR Inten    --      2.2221                 0.3708                 1.0949

                     19                     20                     21
                      A                      A                      A
 Frequencies --    580.1210               624.2823               717.3890
 Red. masses --      2.2273                 1.6567                 1.2183
 Frc consts  --      0.4416                 0.3804                 0.3694
 IR Inten    --     43.9222                73.2568                10.0565

                     22                     23                     24
                      A                      A                      A
 Frequencies --    725.2947               749.9559               780.8288
 Red. masses --      2.2532                 1.4291                 1.4053
 Frc consts  --      0.6984                 0.4736                 0.5048
 IR Inten    --     39.1902                11.9206                 4.7718

                     25                     26                     27
                      A                      A                      A
 Frequencies --    802.7000               819.7772               860.1650
 Red. masses --      1.6275                 2.1017                 1.6486
 Frc consts  --      0.6178                 0.8322                 0.7187
 IR Inten    --      0.2297                 0.4119                 2.2860

                     28                     29                     30
                      A                      A                      A
 Frequencies --    882.8756               911.4463               925.3661
 Red. masses --      2.7801                 1.9701                 1.8679
 Frc consts  --      1.2767                 0.9643                 0.9424
 IR Inten    --      1.8816                 3.3433                 0.3124

                     31                     32                     33
                      A                      A                      A
 Frequencies --    960.8430               986.2101              1007.5426
 Red. masses --      2.2301                 1.6541                 1.8436
 Frc consts  --      1.2131                 0.9479                 1.1027
 IR Inten    --      0.3482                 2.5651                 1.7825

                     34                     35                     36
                      A                      A                      A
 Frequencies --   1037.1784              1059.6575              1064.2227
 Red. masses --      1.7372                 2.0990                 1.5807
 Frc consts  --      1.1010                 1.3887                 1.0548
 IR Inten    --      2.3524                11.2958                19.4231

                     37                     38                     39
                      A                      A                      A
 Frequencies --   1095.8790              1111.3922              1115.0277
 Red. masses --      2.3795                 2.0115                 1.4596
 Frc consts  --      1.6837                 1.4639                 1.0692
 IR Inten    --      3.6403                 5.9365                48.6832

                     40                     41                     42
                      A                      A                      A
 Frequencies --   1138.8827              1176.3950              1204.9060
 Red. masses --      2.0365                 1.8658                 1.3852
 Frc consts  --      1.5563                 1.5214                 1.1848
 IR Inten    --      0.2327                24.6153                35.1849

                     43                     44                     45
                      A                      A                      A
 Frequencies --   1225.0922              1252.6860              1259.2503
 Red. masses --      1.5666                 1.3671                 1.2938
 Frc consts  --      1.3853                 1.2640                 1.2087
 IR Inten    --     72.1389                27.2921                 0.9073

                     46                     47                     48
                      A                      A                      A
 Frequencies --   1291.4827              1316.4877              1318.8702
 Red. masses --      1.2706                 1.2853                 1.1946
 Frc consts  --      1.2487                 1.3125                 1.2243
 IR Inten    --      2.6276                 1.0087                 2.0211

                     49                     50                     51
                      A                      A                      A
 Frequencies --   1331.3717              1338.5654              1350.2810
 Red. masses --      1.1796                 1.1566                 1.1901
 Frc consts  --      1.2319                 1.2210                 1.2784
 IR Inten    --      0.3003                 2.1848                 3.0641

                     52                     53                     54
                      A                      A                      A
 Frequencies --   1375.6013              1384.7747              1389.8391
 Red. masses --      1.3669                 2.1021                 1.4331
 Frc consts  --      1.5240                 2.3749                 1.6310
 IR Inten    --      7.4008                65.8434                 3.4999

                     55                     56                     57
                      A                      A                      A
 Frequencies --   1395.6463              1401.1685              1406.6836
 Red. masses --      1.4921                 1.4628                 1.3905
 Frc consts  --      1.7124                 1.6920                 1.6211
 IR Inten    --      3.4761                 9.0026                 2.5044

                     58                     59                     60
                      A                      A                      A
 Frequencies --   1416.7771              1430.5176              1487.3588
 Red. masses --      1.5023                 1.2798                 1.0943
 Frc consts  --      1.7767                 1.5430                 1.4264
 IR Inten    --      0.4697                 5.4732                 2.8231

                     61                     62                     63
                      A                      A                      A
 Frequencies --   1491.8647              1502.1329              1503.2650
 Red. masses --      1.0715                 1.0789                 1.0807
 Frc consts  --      1.4051                 1.4343                 1.4389
 IR Inten    --      0.1297                 5.8042                 0.4199

                     64                     65                     66
                      A                      A                      A
 Frequencies --   1507.7082              1509.4666              1513.3597
 Red. masses --      1.0831                 1.0873                 1.0871
 Frc consts  --      1.4506                 1.4596                 1.4669
 IR Inten    --      4.2679                 3.5029                 5.7877

                     67                     68                     69
                      A                      A                      A
 Frequencies --   1517.4053              1520.1329              1526.5362
 Red. masses --      1.0574                 1.0744                 1.0782
 Frc consts  --      1.4345                 1.4628                 1.4803
 IR Inten    --      8.9788                 0.2156                 1.4821

                     70                     71                     72
                      A                      A                      A
 Frequencies --   1849.5058              3023.3956              3024.1845
 Red. masses --      9.5677                 1.0621                 1.0628
 Frc consts  --     19.2827                 5.7203                 5.7271
 IR Inten    --    309.1273                13.8450                 2.7397

                     73                     74                     75
                      A                      A                      A
 Frequencies --   3027.2967              3032.2107              3033.6576
 Red. masses --      1.0639                 1.0643                 1.0637
 Frc consts  --      5.7448                 5.7653                 5.7675
 IR Inten    --      8.0790                63.4470                31.2871

                     76                     77                     78
                      A                      A                      A
 Frequencies --   3039.4889              3041.2683              3042.1941
 Red. masses --      1.0616                 1.0590                 1.0475
 Frc consts  --      5.7783                 5.7711                 5.7117
 IR Inten    --     11.0903                32.8081                15.5014

                     79                     80                     81
                      A                      A                      A
 Frequencies --   3058.8174              3059.9599              3065.9517
 Red. masses --      1.0976                 1.0960                 1.1001
 Frc consts  --      6.0504                 6.0463                 6.0925
 IR Inten    --      2.2676                10.1697                52.9879

                     82                     83                     84
                      A                      A                      A
 Frequencies --   3069.6760              3073.8490              3078.3584
 Red. masses --      1.0957                 1.0657                 1.1005
 Frc consts  --      6.0830                 5.9327                 6.1445
 IR Inten    --     35.2851                27.1974                77.8080

                     85                     86                     87
                      A                      A                      A
 Frequencies --   3087.6271              3092.9393              3109.6352
 Red. masses --      1.1017                 1.0952                 1.1016
 Frc consts  --      6.1881                 6.1727                 6.2763
 IR Inten    --     31.3340                79.5907                53.1552

                     88                     89                     90
                      A                      A                      A
 Frequencies --   3116.6893              3136.5349              3753.7191
 Red. masses --      1.1019                 1.1044                 1.0641
 Frc consts  --      6.3064                 6.4014                 8.8341
 IR Inten    --     41.5674                15.9272                49.8549

 - Thermochemistry -
 -------------------
 Temperature   298.150 Kelvin.  Pressure   1.00000 Atm.
 Atom     1 has atomic number  8 and mass  15.99491

 Molecular mass:   172.14633 amu.
 Principal axes and moments of inertia in atomic units:
                           1         2         3
     Eigenvalues --  1646.805394094.483495090.82358
           X            0.99959   0.02795   0.00606
           Y           -0.02796   0.99961   0.00169
           Z           -0.00601  -0.00186   0.99998
 This molecule is an asymmetric top.
 Rotational symmetry number  1.
 Warning -- assumption of classical behavior for rotation
           may cause significant error
 Rotational temperatures (Kelvin)      0.05260     0.02115     0.01701
 Rotational constants (GHZ):           1.09590     0.44077     0.35451
 Zero-point vibrational energy     766746.2 (Joules/Mol)
                                  183.25673 (Kcal/Mol)
 Warning -- explicit consideration of  19 degrees of freedom as
           vibrations may cause significant error
 Vibrational temperatures:     29.85    45.49    52.53   104.68   120.84
          (Kelvin)            152.69   172.49   249.14   260.26   308.66
                              363.49   410.38   435.00   505.62   578.27
                              623.72   671.04   772.16   834.66   898.20
                             1032.16  1043.54  1079.02  1123.44  1154.91
                             1179.48  1237.59  1270.26  1311.37  1331.40
                             1382.44  1418.94  1449.63  1492.27  1524.61
                             1531.18  1576.73  1599.05  1604.28  1638.60
                             1692.57  1733.59  1762.63  1802.34  1811.78
                             1858.16  1894.13  1897.56  1915.55  1925.90
                             1942.75  1979.18  1992.38  1999.67  2008.02
                             2015.97  2023.90  2038.43  2058.20  2139.98
                             2146.46  2161.23  2162.86  2169.26  2171.79
                             2177.39  2183.21  2187.13  2196.35  2661.03
                             4349.99  4351.13  4355.60  4362.67  4364.76
                             4373.15  4375.71  4377.04  4400.96  4402.60
                             4411.22  4416.58  4422.58  4429.07  4442.41
                             4450.05  4474.07  4484.22  4512.77  5400.76

 Zero-point correction=                           0.292038 (Hartree/Particle)
 Thermal correction to Energy=                    0.306571
 Thermal correction to Enthalpy=                  0.307515
 Thermal correction to Gibbs Free Energy=         0.248042
 Sum of electronic and zero-point Energies=           -543.371889
 Sum of electronic and thermal Energies=              -543.357357
 Sum of electronic and thermal Enthalpies=            -543.356412
 Sum of electronic and thermal Free Energies=         -543.415886

                     E (Thermal)             CV                S
                      KCal/Mol        Cal/Mol-Kelvin    Cal/Mol-Kelvin
 Total                  192.376             52.278            125.172
 Electronic               0.000              0.000              0.000
 Translational            0.889              2.981             41.337
 Rotational               0.889              2.981             31.907
 Vibrational            190.599             46.316             51.928
 Vibration     1          0.593              1.986              6.562
 Vibration     2          0.594              1.983              5.725
 Vibration     3          0.594              1.982              5.440
 Vibration     4          0.599              1.967              4.077
 Vibration     5          0.601              1.960              3.795
 Vibration     6          0.605              1.944              3.339
 Vibration     7          0.609              1.933              3.102
 Vibration     8          0.627              1.875              2.401
 Vibration     9          0.630              1.866              2.319
 Vibration    10          0.644              1.819              2.005
 Vibration    11          0.664              1.758              1.712
 Vibration    12          0.683              1.701              1.502
 Vibration    13          0.694              1.669              1.404
 Vibration    14          0.728              1.572              1.160
 Vibration    15          0.768              1.466              0.956
 Vibration    16          0.794              1.397              0.847
 Vibration    17          0.824              1.325              0.748
 Vibration    18          0.892              1.169              0.572
 Vibration    19          0.937              1.074              0.485

 Optimization completed.
    -- Stationary point found.
 Normal termination of Gaussian 16 at Thu Feb  3 06:31:23 2022.

 ----------------------------------------------------------------------
 # M062X/def2tzvp int=(grid=ultrafine) pop=nbo7 polar prop=efg volume g
 uess=read geom=check
 ----------------------------------------------------------------------

 -------
 Ac1.xyz
 -------
 Structure from the checkpoint file:  "Ac1_clust-11.chk"
 Charge =  0 Multiplicity = 1

 SCF Done:  E(RM062X) =  -543.539013774     A.U. after   11 cycles

  Exact polarizability:     136.709      -3.060     125.861      -1.769       0.182     111.883
 Approx polarizability:     147.170      -4.061     141.730      -4.601      -0.193     147.681

 Summary of Natural Population Analysis:

                                     Natural Population
             Natural    ---------------------------------------------
  Atom No    Charge        Core      Valence    Rydberg      Total
 --------------------------------------------------------------------
    O  1   -0.69512      2.00000     6.67318    0.02194     8.69512
    C  2    0.79730      1.99999     3.16589    0.03682     5.20270
    C  3   -0.51238      1.99999     4.49846    0.01393     6.51238
    C  4   -0.38241      1.99999     4.37189    0.01053     6.38241
    C  5   -0.39187      1.99999     4.38094    0.01094     6.39187
    C  6   -0.40926      1.99999     4.39727    0.01200     6.40926
    C  7   -0.39904      1.99999     4.38765    0.01139     6.39904
    C  8   -0.39627      1.99999     4.38494    0.01134     6.39627
    C  9   -0.39657      1.99999     4.38534    0.01124     6.39657
    C 10   -0.39689      1.99999     4.38632    0.01058     6.39689
    C 11   -0.61199      1.99999     4.60288    0.00912     6.61199
    O 12   -0.59184      2.00000     6.56569    0.02615     8.59184
    H 13    0.49382      0.00000     0.50282    0.00336     0.50618
    H 14    0.22641      0.00000     0.77167    0.00192     0.77359
    H 15    0.22914      0.00000     0.76928    0.00158     0.77086
    H 16    0.20937      0.00000     0.78888    0.00175     0.79063
    H 17    0.20899      0.00000     0.78947    0.00153     0.79101
    H 18    0.21090      0.00000     0.78778    0.00132     0.78910
    H 19    0.19657      0.00000     0.80149    0.00194     0.80343
    H 20    0.19678      0.00000     0.80121    0.00201     0.80322
    H 21    0.20524      0.00000     0.79312    0.00163     0.79476
    H 22    0.20340      0.00000     0.79497    0.00163     0.79660
    H 23    0.19315      0.00000     0.80497    0.00188     0.80685
    H 24    0.20220      0.00000     0.79625    0.00155     0.79780
    H 25    0.20168      0.00000     0.79666    0.00166     0.79832
    H 26    0.20012      0.00000     0.79841    0.00147     0.79988
    H 27    0.20182      0.00000     0.79656    0.00162     0.79818
    H 28    0.18798      0.00000     0.81015    0.00186     0.81202
    H 29    0.20460      0.00000     0.79390    0.00150     0.79540
    H 30    0.20055      0.00000     0.79824    0.00121     0.79945
    H 31    0.21133      0.00000     0.78770    0.00097     0.78867
    H 32    0.20227      0.00000     0.79643    0.00130     0.79773
 ====================================================================
 * Total *  0.00000     23.99992    71.78040    0.21968    96.00000

 1\1\GINC-NOTCH075\SP\RM062X\def2TZVP\C10H20O2\U6032257\03-Feb-2022\0\\
 # M062X/def2tzvp int=(grid=ultrafine) pop=nbo7 polar prop=efg volume g
 uess=read geom=check\\Ac1.xyz\\0,1\O,0,5.9270514698,-1.0827344542,-1.0
 201698101\C,0,4.8212186504,-0.3055102772,-0.8767832486\C,0,3.557939400
 3,-1.0820663219,-1.1545572442\C,0,3.3246649231,-2.1918417752,-0.112514
 1182\C,0,1.9919611772,-2.9389895031,-0.2628119807\C,0,1.8103210531,-3.
 7069400139,-1.5873192793\C,0,1.1133303324,-2.9110299297,-2.6988430099\
 C,0,0.8755305468,-3.7133356868,-3.9859107849\C,0,2.1457533393,-4.25281

 Normal termination of Gaussian 16 at Thu Feb  3 06:35:05 2022.
 Gaussian 16:  ES64L-G16RevC.01  3-Jul-2019

 --------------------------------------------------------------------
 # M062X/def2tzvp int=(grid=ultrafine) nmr=giao guess=read geom=check
 --------------------------------------------------------------------

 -------
 Ac1.xyz
 -------
 Structure from the checkpoint file:  "Ac1_clust-11.chk"
 Charge =  0 Multiplicity = 1

                         Standard orientation:
 ---------------------------------------------------------------------
 Center     Atomic      Atomic             Coordinates (Angstroms)
 Number     Number       Type             X           Y           Z
 ---------------------------------------------------------------------
      1          8           0        2.986168   -1.187365    1.138956
      2          6           0        2.930848   -0.786240   -0.158558
      3          6           0        1.712423    0.062601   -0.424985
      4          6           0        1.765878    1.399927    0.336969
      5          6           0        0.617458    2.365856    0.012883
      6          6           0       -0.794157    1.857205    0.367393
      7          6           0       -1.518936    1.131497   -0.774008
      8          6           0       -2.949620    0.695695   -0.427586
      9          6           0       -3.068064   -0.277243    0.757379
     10          6           0       -2.229518   -1.558177    0.637398
     11          6           0       -2.545228   -2.397393   -0.603293
     12          8           0        3.785791   -1.083379   -0.963045
     13          1           0        3.805169   -1.704139    1.222225
     14          1           0        0.829756   -0.506136   -0.116656
     15          1           0        1.659053    0.228756   -1.503253
     16          1           0        1.774229    1.189624    1.412324
     17          1           0        2.717740    1.894343    0.107623
     18          1           0        0.812823    3.293556    0.563353
     19          1           0        0.653820    2.634644   -1.051554
     20          1           0       -0.729217    1.207205    1.249520
     21          1           0       -1.416749    2.708379    0.671707
     22          1           0       -1.557265    1.801943   -1.642432
     23          1           0       -0.940153    0.260705   -1.099725
     24          1           0       -3.402749    0.241984   -1.317155
     25          1           0       -3.550641    1.587512   -0.205882
     26          1           0       -2.791959    0.239394    1.684575
     27          1           0       -4.124212   -0.554998    0.871623
     28          1           0       -1.161961   -1.303342    0.642953
     29          1           0       -2.392346   -2.165771    1.535952
     30          1           0       -2.305596   -1.861622   -1.527202
     31          1           0       -1.972860   -3.330231   -0.606287
     32          1           0       -3.609062   -2.658216   -0.640556
 ---------------------------------------------------------------------

 SCF Done:  E(RM062X) =  -543.539013774     A.U. after    1 cycles

      1  O    Isotropic =   104.6134   Anisotropy =   230.5806

      2  C    Isotropic =    -9.1149   Anisotropy =   126.8621

      3  C    Isotropic =   145.9067   Anisotropy =    44.1502

      4  C    Isotropic =   153.5968   Anisotropy =    21.5896

      5  C    Isotropic =   155.0390   Anisotropy =    14.5878

      6  C    Isotropic =   156.4994   Anisotropy =    26.0746

      7  C    Isotropic =   155.9178   Anisotropy =    32.0889

      8  C    Isotropic =   159.3607   Anisotropy =    22.6362

      9  C    Isotropic =   158.6493   Anisotropy =    18.6847

     10  C    Isotropic =   165.4336   Anisotropy =    12.0975

     11  C    Isotropic =   174.1683   Anisotropy =    20.7261

     12  O    Isotropic =  -169.7321   Anisotropy =   614.7037

     13  H    Isotropic =    25.8703   Anisotropy =    11.4843

     14  H    Isotropic =    29.2404   Anisotropy =     7.3151

     15  H    Isotropic =    29.8971   Anisotropy =     4.9066

     16  H    Isotropic =    30.1054   Anisotropy =     6.5609

     17  H    Isotropic =    30.2111   Anisotropy =     8.6926

     18  H    Isotropic =    30.0469   Anisotropy =     9.7723

     19  H    Isotropic =    30.8712   Anisotropy =     6.8701

     20  H    Isotropic =    30.6284   Anisotropy =     4.1274

     21  H    Isotropic =    30.6449   Anisotropy =     8.1573

     22  H    Isotropic =    30.7820   Anisotropy =     7.8841

     23  H    Isotropic =    30.5000   Anisotropy =     4.9723

     24  H    Isotropic =    30.2763   Anisotropy =     8.1686

     25  H    Isotropic =    30.6901   Anisotropy =     9.5277

     26  H    Isotropic =    30.2616   Anisotropy =     7.0523

     27  H    Isotropic =    30.7077   Anisotropy =    10.0371

     28  H    Isotropic =    30.5281   Anisotropy =     8.6453

     29  H    Isotropic =    30.4746   Anisotropy =     9.8060

     30  H    Isotropic =    30.9213   Anisotropy =     6.1443

     31  H    Isotropic =    30.8793   Anisotropy =    10.5775

     32  H    Isotropic =    31.3811   Anisotropy =    10.4323

 The electronic state is 1-A.
 Alpha  occ. eigenvalues --  -19.67433 -19.62010 -10.67818 -10.55320 -10.54570
 Alpha  occ. eigenvalues --  -10.53788 -10.53392 -10.53169 -10.53146 -10.52985
 Alpha  occ. eigenvalues --  -10.52915 -10.52367  -1.23426  -1.13883  -0.92395
 Alpha  occ. eigenvalues --   -0.90322  -0.86760  -0.82929  -0.78476  -0.74344
 Alpha  occ. eigenvalues --   -0.70339  -0.68164  -0.66138  -0.62759  -0.58520
 Alpha  occ. eigenvalues --   -0.57535  -0.55245  -0.54090  -0.53638  -0.51859
 Alpha  occ. eigenvalues --   -0.51001  -0.49864  -0.47963  -0.47499  -0.46368
 Alpha  occ. eigenvalues --   -0.45585  -0.44322  -0.43278  -0.42210  -0.41366
 Alpha  occ. eigenvalues --   -0.40269  -0.39510  -0.39149  -0.38947  -0.37325
 Alpha  occ. eigenvalues --   -0.36946  -0.36532  -0.35148
 Alpha virt. eigenvalues --    0.04371   0.05712   0.06598   0.07173   0.07887
 Alpha virt. eigenvalues --    0.08739   0.10032   0.10665   0.11834   0.12267
 Alpha virt. eigenvalues --    0.12620   0.13334   0.13620   0.14811   0.15011

 Mulliken charges:
               1
     1  O   -0.412653
     2  C    0.326980
     3  C   -0.257124
     4  C   -0.322100
     5  C   -0.254519
     6  C   -0.331342
     7  C   -0.315648
     8  C   -0.313831
     9  C   -0.310985
    10  C   -0.248355
    11  C   -0.436211
    12  O   -0.331051
    13  H    0.336139
    14  H    0.113570
    15  H    0.175152
    16  H    0.172724
    17  H    0.155153
    18  H    0.148630
    19  H    0.155591
    20  H    0.165142
    21  H    0.152808
    22  H    0.151686
    23  H    0.156214
    24  H    0.165418
    25  H    0.151783
    26  H    0.156825
    27  H    0.151958
    28  H    0.124498
    29  H    0.141980
    30  H    0.142113
    31  H    0.146104
    32  H    0.143350
 Sum of Mulliken charges =  -0.00000

 Dipole moment (field-independent basis, Debye):
    X=             -1.4876    Y=              0.7607    Z=              1.3605  Tot=              2.1546
 Quadrupole moment (field-independent basis, Debye-Ang):
   XX=            -83.2188   YY=            -75.1517   ZZ=            -79.7479
   XY=              1.1987   XZ=              7.6205   YZ=             -2.9743

 1\1\GINC-NOTCH075\SP\RM062X\def2TZVP\C10H20O2\U6032257\03-Feb-2022\0\\
 # M062X/def2tzvp int=(grid=ultrafine) nmr=giao guess=read geom=check\\
 Ac1.xyz\\0,1\O,0,5.9270514698,-1.0827344542,-1.0201698101\C,0,4.821218
 6504,-0.3055102772,-0.8767832486\C,0,3.5579394003,-1.0820663219,-1.154
 5572442\C,0,3.3246649231,-2.1918417752,-0.1125141182\C,0,1.9919611772,
 -2.9389895031,-0.2628119807\C,0,1.8103210531,-3.7069400139,-1.58731927
 93\C,0,1.1133303324,-2.9110299297,-2.6988430099\C,0,0.8755305468,-3.71
 33356868,-3.9859107849\C,0,2.1457533393,-4.2528103966,-4.664350383\C,0

 Normal termination of Gaussian 16 at Thu Feb  3 06:36:35 2022.
