 Gaussian 16, Revision C.01,

 ----------------------------------------------------------------------
 # B3LYP/6-31G(d,p) empiricaldispersion=GD3BJ int=(grid=ultrafine) opt
 freq=noraman
 ----------------------------------------------------------------------

 -------
 Ac1.xyz
 -------
 Symbolic Z-matrix:
 Charge =  0 Multiplicity = 1

 SCF Done:  E(RB3LYP) =  -543.662152540     A.U. after   13 cycles
 SCF Done:  E(RB3LYP) =  -543.664080732     A.U. after   12 cycles
 SCF Done:  E(RB3LYP) =  -543.663866318     A.U. after   12 cycles
 SCF Done:  E(RB3LYP) =  -543.664323589     A.U. after   10 cycles
 SCF Done:  E(RB3LYP) =  -543.664357957     A.U. after   10 cycles
 SCF Done:  E(RB3LYP) =  -543.664363631     A.U. after    9 cycles
 SCF Done:  E(RB3LYP) =  -543.664383929     A.U. after    9 cycles
 SCF Done:  E(RB3LYP) =  -543.664384386     A.U. after    7 cycles
 SCF Done:  E(RB3LYP) =  -543.664384421     A.U. after    6 cycles
 SCF Done:  E(RB3LYP) =  -543.664384450     A.U. after    6 cycles
 SCF Done:  E(RB3LYP) =  -543.664384492     A.U. after    7 cycles
 SCF Done:  E(RB3LYP) =  -543.664384523     A.U. after    7 cycles
 SCF Done:  E(RB3LYP) =  -543.664384536     A.U. after    6 cycles
 Optimization completed.
    -- Stationary point found.
 Normal termination of Gaussian 16 at Thu Feb  3 08:11:56 2022.

 ----------------------------------------------------------------------
 #N Geom=AllCheck Guess=TCheck SCRF=Check GenChk RB3LYP/6-31G(d,p) Freq
 ----------------------------------------------------------------------

 Structure from the checkpoint file:  "Ac1_clust-21.chk"
 -------
 Ac1.xyz
 -------
 Charge =  0 Multiplicity = 1

 SCF Done:  E(RB3LYP) =  -543.664384536     A.U. after    1 cycles

                      1                      2                      3
                      A                      A                      A
 Frequencies --     17.6421                28.2478                36.2963
 Red. masses --      8.1077                 2.8347                 4.1679
 Frc consts  --      0.0015                 0.0013                 0.0032
 IR Inten    --      1.1424                 0.0669                 0.0408

                      4                      5                      6
                      A                      A                      A
 Frequencies --     46.2644                86.2639               110.3259
 Red. masses --      3.1369                 2.4891                 2.2951
 Frc consts  --      0.0040                 0.0109                 0.0165
 IR Inten    --      0.0103                 0.0525                 0.4086

                      7                      8                      9
                      A                      A                      A
 Frequencies --    119.4989               142.7219               165.3193
 Red. masses --      1.9824                 2.1608                 4.0365
 Frc consts  --      0.0167                 0.0259                 0.0650
 IR Inten    --      0.0255                 0.2343                 2.2438

                     10                     11                     12
                      A                      A                      A
 Frequencies --    223.3121               237.4472               263.7979
 Red. masses --      1.4778                 2.2211                 1.9416
 Frc consts  --      0.0434                 0.0738                 0.0796
 IR Inten    --      0.0740                 0.2992                 0.1004

                     13                     14                     15
                      A                      A                      A
 Frequencies --    298.2301               319.6016               384.6959
 Red. masses --      1.6150                 3.0332                 2.5751
 Frc consts  --      0.0846                 0.1825                 0.2245
 IR Inten    --      0.1712                 1.2641                 1.2921

                     16                     17                     18
                      A                      A                      A
 Frequencies --    439.8563               463.4355               517.1058
 Red. masses --      2.7295                 3.1179                 1.6000
 Frc consts  --      0.3111                 0.3945                 0.2521
 IR Inten    --      3.3879                12.7358                18.8760

                     19                     20                     21
                      A                      A                      A
 Frequencies --    538.3986               633.0051               669.9944
 Red. masses --      2.1676                 4.1519                 1.2865
 Frc consts  --      0.3702                 0.9802                 0.3402
 IR Inten    --      1.5532                36.7225                87.6288

                     22                     23                     24
                      A                      A                      A
 Frequencies --    739.1534               753.4901               778.4700
 Red. masses --      1.2377                 1.3980                 1.2557
 Frc consts  --      0.3984                 0.4676                 0.4484
 IR Inten    --      2.1521                11.0013                 4.0177

                     25                     26                     27
                      A                      A                      A
 Frequencies --    788.6153               825.7367               869.6430
 Red. masses --      1.4767                 1.6813                 2.3055
 Frc consts  --      0.5411                 0.6754                 1.0273
 IR Inten    --     10.1575                 6.3806                 0.1257

                     28                     29                     30
                      A                      A                      A
 Frequencies --    882.6111               919.6699               933.1234
 Red. masses --      2.9415                 1.6812                 1.9165
 Frc consts  --      1.3501                 0.8378                 0.9832
 IR Inten    --      4.0488                 3.1357                 1.8594

                     31                     32                     33
                      A                      A                      A
 Frequencies --    960.9520               995.4626              1002.0541
 Red. masses --      2.0594                 1.7861                 1.6542
 Frc consts  --      1.1204                 1.0428                 0.9786
 IR Inten    --      2.2339                 4.3701                 0.5972

                     34                     35                     36
                      A                      A                      A
 Frequencies --   1048.2785              1065.4878              1082.2890
 Red. masses --      2.1938                 1.4759                 2.1163
 Frc consts  --      1.4204                 0.9872                 1.4605
 IR Inten    --      1.8375                 1.8027                 1.9685

                     37                     38                     39
                      A                      A                      A
 Frequencies --   1091.5785              1108.0539              1136.4517
 Red. masses --      2.3781                 2.2091                 1.7623
 Frc consts  --      1.6695                 1.5980                 1.3410
 IR Inten    --      0.5130                 3.3539                61.0059

                     40                     41                     42
                      A                      A                      A
 Frequencies --   1142.9617              1171.6500              1185.5309
 Red. masses --      1.8678                 2.2169                 1.5246
 Frc consts  --      1.4376                 1.7930                 1.2625
 IR Inten    --     46.3028               154.5120                 0.5749

                     43                     44                     45
                      A                      A                      A
 Frequencies --   1223.2235              1258.8956              1263.8424
 Red. masses --      1.4159                 1.3280                 1.3414
 Frc consts  --      1.2482                 1.2400                 1.2624
 IR Inten    --      8.7967                 7.1159                 6.2117

                     46                     47                     48
                      A                      A                      A
 Frequencies --   1301.4761              1304.2328              1323.5064
 Red. masses --      1.3348                 1.2872                 1.1726
 Frc consts  --      1.3321                 1.2900                 1.2102
 IR Inten    --      1.6148                 0.6644                 2.7319

                     49                     50                     51
                      A                      A                      A
 Frequencies --   1330.3229              1337.9296              1353.4129
 Red. masses --      1.1627                 1.1474                 1.1861
 Frc consts  --      1.2124                 1.2101                 1.2801
 IR Inten    --      0.5387                 0.1734                 6.1976

                     52                     53                     54
                      A                      A                      A
 Frequencies --   1362.3954              1372.3178              1386.1329
 Red. masses --      1.2051                 1.6150                 1.3844
 Frc consts  --      1.3178                 1.7920                 1.5672
 IR Inten    --      0.3007                21.8443                 7.0419

                     55                     56                     57
                      A                      A                      A
 Frequencies --   1393.5319              1413.6847              1418.2971
 Red. masses --      1.4721                 1.5484                 1.4782
 Frc consts  --      1.6843                 1.8232                 1.7520
 IR Inten    --     13.9116                 6.0057                 5.4967

                     58                     59                     60
                      A                      A                      A
 Frequencies --   1430.2818              1432.9005              1476.3144
 Red. masses --      1.3083                 1.9593                 1.0856
 Frc consts  --      1.5769                 2.3701                 1.3940
 IR Inten    --     13.2860                48.0594                 6.3782

                     61                     62                     63
                      A                      A                      A
 Frequencies --   1494.8771              1496.2117              1503.8054
 Red. masses --      1.0756                 1.0869                 1.0655
 Frc consts  --      1.4161                 1.4336                 1.4196
 IR Inten    --      0.9163                 1.0396                 0.8314

                     64                     65                     66
                      A                      A                      A
 Frequencies --   1506.8603              1508.9077              1512.9475
 Red. masses --      1.0896                 1.0840                 1.0852
 Frc consts  --      1.4577                 1.4542                 1.4636
 IR Inten    --      3.0121                 9.7593                 0.6408

                     67                     68                     69
                      A                      A                      A
 Frequencies --   1514.9720              1518.4078              1523.6119
 Red. masses --      1.0898                 1.0670                 1.0635
 Frc consts  --      1.4737                 1.4494                 1.4546
 IR Inten    --      3.8166                 3.8783                 5.2302

                     70                     71                     72
                      A                      A                      A
 Frequencies --   1844.8104              3011.6553              3018.9514
 Red. masses --      9.7663                 1.0634                 1.0616
 Frc consts  --     19.5832                 5.6825                 5.7007
 IR Inten    --    245.1999                 6.0579                10.2476

                     73                     74                     75
                      A                      A                      A
 Frequencies --   3020.6158              3024.8292              3025.4154
 Red. masses --      1.0687                 1.0619                 1.0637
 Frc consts  --      5.7449                 5.7245                 5.7364
 IR Inten    --     20.8865                59.3823                45.9488

                     76                     77                     78
                      A                      A                      A
 Frequencies --   3027.0242              3040.8550              3050.8157
 Red. masses --      1.0630                 1.0382                 1.0661
 Frc consts  --      5.7387                 5.6559                 5.8461
 IR Inten    --     16.1314                20.5207                 4.7567

                     79                     80                     81
                      A                      A                      A
 Frequencies --   3050.9725              3056.2576              3057.7213
 Red. masses --      1.0970                 1.0777                 1.0867
 Frc consts  --      6.0166                 5.9309                 5.9862
 IR Inten    --      8.7892                 8.2547                 7.0748

                     82                     83                     84
                      A                      A                      A
 Frequencies --   3061.4220              3071.8662              3077.8681
 Red. masses --      1.1005                 1.0912                 1.1026
 Frc consts  --      6.0771                 6.0670                 6.1542
 IR Inten    --     20.3172                37.0345               103.3989

                     85                     86                     87
                      A                      A                      A
 Frequencies --   3081.0677              3088.4006              3108.2506
 Red. masses --      1.1007                 1.0966                 1.0988
 Frc consts  --      6.1564                 6.1627                 6.2545
 IR Inten    --     86.4279                10.9952                13.4344

                     88                     89                     90
                      A                      A                      A
 Frequencies --   3108.4350              3118.1021              3752.9745
 Red. masses --      1.1013                 1.1018                 1.0641
 Frc consts  --      6.2693                 6.3115                 8.8303
 IR Inten    --     63.8041                50.1941                45.9818

 - Thermochemistry -
 -------------------
 Temperature   298.150 Kelvin.  Pressure   1.00000 Atm.
 Atom     1 has atomic number  8 and mass  15.99491

 Molecular mass:   172.14633 amu.
 Principal axes and moments of inertia in atomic units:
                           1         2         3
     Eigenvalues --   922.427537115.847197477.14677
           X            0.99995  -0.00819   0.00639
           Y            0.00827   0.99988  -0.01319
           Z           -0.00628   0.01324   0.99989
 This molecule is an asymmetric top.
 Rotational symmetry number  1.
 Warning -- assumption of classical behavior for rotation
           may cause significant error
 Rotational temperatures (Kelvin)      0.09390     0.01217     0.01158
 Rotational constants (GHZ):           1.95651     0.25362     0.24137
 Zero-point vibrational energy     764918.2 (Joules/Mol)
                                  182.81983 (Kcal/Mol)
 Warning -- explicit consideration of  19 degrees of freedom as
           vibrations may cause significant error
 Vibrational temperatures:     25.38    40.64    52.22    66.56   124.11
          (Kelvin)            158.73   171.93   205.35   237.86   321.30
                              341.63   379.55   429.09   459.84   553.49
                              632.86   666.78   744.00   774.64   910.75
                              963.97  1063.48  1084.10  1120.04  1134.64
                             1188.05  1251.22  1269.88  1323.20  1342.56
                             1382.60  1432.25  1441.73  1508.24  1533.00
                             1557.17  1570.54  1594.24  1635.10  1644.47
                             1685.74  1705.71  1759.95  1811.27  1818.39
                             1872.53  1876.50  1904.23  1914.04  1924.98
                             1947.26  1960.18  1974.46  1994.34  2004.98
                             2033.98  2040.61  2057.86  2061.62  2124.09
                             2150.79  2152.71  2163.64  2168.04  2170.98
                             2176.79  2179.71  2184.65  2192.14  2654.27
                             4333.10  4343.60  4345.99  4352.05  4352.90
                             4355.21  4375.11  4389.44  4389.67  4397.27
                             4399.38  4404.70  4419.73  4428.37  4432.97
                             4443.52  4472.08  4472.34  4486.25  5399.69

 Zero-point correction=                           0.291342 (Hartree/Particle)
 Thermal correction to Energy=                    0.306144
 Thermal correction to Enthalpy=                  0.307088
 Thermal correction to Gibbs Free Energy=         0.246305
 Sum of electronic and zero-point Energies=           -543.373043
 Sum of electronic and thermal Energies=              -543.358241
 Sum of electronic and thermal Enthalpies=            -543.357296
 Sum of electronic and thermal Free Energies=         -543.418079

                     E (Thermal)             CV                S
                      KCal/Mol        Cal/Mol-Kelvin    Cal/Mol-Kelvin
 Total                  192.108             52.614            127.928
 Electronic               0.000              0.000              0.000
 Translational            0.889              2.981             41.337
 Rotational               0.889              2.981             32.262
 Vibrational            190.331             46.653             54.329
 Vibration     1          0.593              1.986              6.883
 Vibration     2          0.593              1.984              5.949
 Vibration     3          0.594              1.982              5.452
 Vibration     4          0.595              1.979              4.971
 Vibration     5          0.601              1.959              3.743
 Vibration     6          0.606              1.941              3.263
 Vibration     7          0.609              1.933              3.108
 Vibration     8          0.616              1.910              2.767
 Vibration     9          0.624              1.885              2.488
 Vibration    10          0.649              1.806              1.932
 Vibration    11          0.656              1.783              1.822
 Vibration    12          0.670              1.739              1.637
 Vibration    13          0.691              1.677              1.427
 Vibration    14          0.706              1.636              1.312
 Vibration    15          0.754              1.503              1.021
 Vibration    16          0.800              1.383              0.827
 Vibration    17          0.821              1.331              0.756
 Vibration    18          0.872              1.212              0.617
 Vibration    19          0.893              1.165              0.569

 Optimization completed.
    -- Stationary point found.
 Normal termination of Gaussian 16 at Thu Feb  3 08:13:26 2022.

 ----------------------------------------------------------------------
 # M062X/def2tzvp int=(grid=ultrafine) pop=nbo7 polar prop=efg volume g
 uess=read geom=check
 ----------------------------------------------------------------------

 -------
 Ac1.xyz
 -------
 Structure from the checkpoint file:  "Ac1_clust-21.chk"
 Charge =  0 Multiplicity = 1

 SCF Done:  E(RM062X) =  -543.539305834     A.U. after   11 cycles

  Exact polarizability:     150.191       1.385     115.510      -1.084       2.656     111.912
 Approx polarizability:     144.136       1.858     142.222      -3.581       4.776     148.327

 Summary of Natural Population Analysis:

                                     Natural Population
             Natural    ---------------------------------------------
  Atom No    Charge        Core      Valence    Rydberg      Total
 --------------------------------------------------------------------
    O  1   -0.68865      2.00000     6.66680    0.02185     8.68865
    C  2    0.79711      1.99999     3.16693    0.03597     5.20289
    C  3   -0.51424      1.99999     4.50113    0.01312     6.51424
    C  4   -0.40199      1.99999     4.38897    0.01303     6.40199
    C  5   -0.39133      1.99999     4.38072    0.01062     6.39133
    C  6   -0.39318      1.99999     4.38198    0.01121     6.39318
    C  7   -0.39392      1.99999     4.38320    0.01073     6.39392
    C  8   -0.39446      1.99999     4.38317    0.01130     6.39446
    C  9   -0.39545      1.99999     4.38418    0.01128     6.39545
    C 10   -0.38891      1.99999     4.37866    0.01026     6.38891
    C 11   -0.60907      1.99999     4.60028    0.00880     6.60907
    O 12   -0.59706      2.00000     6.57092    0.02615     8.59706
    H 13    0.49251      0.00000     0.50410    0.00339     0.50749
    H 14    0.23263      0.00000     0.76587    0.00150     0.76737
    H 15    0.23659      0.00000     0.76190    0.00151     0.76341
    H 16    0.21767      0.00000     0.78094    0.00139     0.78233
    H 17    0.21218      0.00000     0.78601    0.00182     0.78782
    H 18    0.19259      0.00000     0.80552    0.00189     0.80741
    H 19    0.21004      0.00000     0.78864    0.00133     0.78996
    H 20    0.20153      0.00000     0.79683    0.00164     0.79847
    H 21    0.19472      0.00000     0.80335    0.00193     0.80528
    H 22    0.19723      0.00000     0.80116    0.00161     0.80277
    H 23    0.19142      0.00000     0.80649    0.00208     0.80858
    H 24    0.19981      0.00000     0.79844    0.00175     0.80019
    H 25    0.19618      0.00000     0.80191    0.00190     0.80382
    H 26    0.19863      0.00000     0.79972    0.00164     0.80137
    H 27    0.19316      0.00000     0.80491    0.00193     0.80684
    H 28    0.19272      0.00000     0.80541    0.00187     0.80728
    H 29    0.20006      0.00000     0.79840    0.00154     0.79994
    H 30    0.20023      0.00000     0.79845    0.00132     0.79977
    H 31    0.20144      0.00000     0.79742    0.00114     0.79856
    H 32    0.20984      0.00000     0.78921    0.00095     0.79016
 ====================================================================
 * Total *  0.00000     23.99992    71.78162    0.21846    96.00000

 1\1\GINC-NOTCH075\SP\RM062X\def2TZVP\C10H20O2\U6032257\03-Feb-2022\0\\
 # M062X/def2tzvp int=(grid=ultrafine) pop=nbo7 polar prop=efg volume g
 uess=read geom=check\\Ac1.xyz\\0,1\O,0,6.3923161839,-0.4436899993,0.05
 95356295\C,0,5.0421746863,-0.3162594263,0.1246177054\C,0,4.3452543035,
 -1.5948995778,-0.2751678343\C,0,2.8213405498,-1.492532824,-0.192056844
 1\C,0,2.0849563769,-2.7784119616,-0.6145512556\C,0,1.6860140298,-2.853
 9130505,-2.0964788169\C,0,2.8457655624,-2.7933762538,-3.0971142666\C,0
 ,2.4141341891,-2.9549692286,-4.5618947483\C,0,1.8661759256,-4.34482641

 Normal termination of Gaussian 16 at Thu Feb  3 08:16:36 2022.
 Gaussian 16:  ES64L-G16RevC.01  3-Jul-2019

 --------------------------------------------------------------------
 # M062X/def2tzvp int=(grid=ultrafine) nmr=giao guess=read geom=check
 --------------------------------------------------------------------

 -------
 Ac1.xyz
 -------
 Structure from the checkpoint file:  "Ac1_clust-21.chk"
 Charge =  0 Multiplicity = 1

                         Standard orientation:
 ---------------------------------------------------------------------
 Center     Atomic      Atomic             Coordinates (Angstroms)
 Number     Number       Type             X           Y           Z
 ---------------------------------------------------------------------
      1          8           0       -4.294665   -1.620035   -0.575597
      2          6           0       -3.798860   -0.588537    0.154847
      3          6           0       -2.609770    0.049147   -0.523291
      4          6           0       -2.039259    1.230248    0.263613
      5          6           0       -0.811689    1.886491   -0.397194
      6          6           0        0.551473    1.335017    0.048486
      7          6           0        0.784266   -0.154709   -0.228071
      8          6           0        2.186893   -0.648052    0.155661
      9          6           0        3.317250   -0.062243   -0.699332
     10          6           0        4.695416   -0.676566   -0.417301
     11          6           0        5.219587   -0.407552    0.996444
     12          8           0       -4.280354   -0.255907    1.215500
     13          1           0       -5.047512   -1.967434   -0.068274
     14          1           0       -2.927586    0.362712   -1.525654
     15          1           0       -1.865116   -0.735924   -0.689854
     16          1           0       -2.838002    1.969112    0.383090
     17          1           0       -1.790572    0.902268    1.279412
     18          1           0       -0.896637    1.809088   -1.490152
     19          1           0       -0.824557    2.959428   -0.173499
     20          1           0        1.333506    1.923298   -0.445845
     21          1           0        0.671996    1.514642    1.126139
     22          1           0        0.047462   -0.744661    0.329919
     23          1           0        0.606006   -0.361810   -1.293207
     24          1           0        2.214115   -1.742546    0.067885
     25          1           0        2.364157   -0.423562    1.215250
     26          1           0        3.069365   -0.211632   -1.759045
     27          1           0        3.376975    1.023473   -0.549736
     28          1           0        4.649041   -1.760343   -0.590118
     29          1           0        5.413916   -0.282310   -1.146625
     30          1           0        5.261112    0.668628    1.200559
     31          1           0        4.581879   -0.863836    1.759769
     32          1           0        6.228768   -0.810520    1.127591
 ---------------------------------------------------------------------

 SCF Done:  E(RM062X) =  -543.539305834     A.U. after    1 cycles

      1  O    Isotropic =   105.3989   Anisotropy =   244.1812

      2  C    Isotropic =    -9.3303   Anisotropy =   123.2973

      3  C    Isotropic =   147.5100   Anisotropy =    54.2581

      4  C    Isotropic =   160.1142   Anisotropy =    28.4714

      5  C    Isotropic =   156.9849   Anisotropy =    12.3970

      6  C    Isotropic =   152.7565   Anisotropy =    22.2173

      7  C    Isotropic =   152.6666   Anisotropy =    22.8425

      8  C    Isotropic =   155.1941   Anisotropy =    23.1321

      9  C    Isotropic =   153.6719   Anisotropy =    24.0467

     10  C    Isotropic =   160.2685   Anisotropy =    18.1935

     11  C    Isotropic =   172.5411   Anisotropy =    21.7117

     12  O    Isotropic =  -165.8135   Anisotropy =   654.4757

     13  H    Isotropic =    25.7925   Anisotropy =    11.8784

     14  H    Isotropic =    29.7249   Anisotropy =     6.4006

     15  H    Isotropic =    29.3005   Anisotropy =     6.0808

     16  H    Isotropic =    30.0626   Anisotropy =     8.7124

     17  H    Isotropic =    30.4664   Anisotropy =     5.2041

     18  H    Isotropic =    31.0045   Anisotropy =     6.4182

     19  H    Isotropic =    30.1042   Anisotropy =     9.4129

     20  H    Isotropic =    30.2043   Anisotropy =     8.0899

     21  H    Isotropic =    30.9426   Anisotropy =     6.3245

     22  H    Isotropic =    30.2315   Anisotropy =     8.7067

     23  H    Isotropic =    31.0111   Anisotropy =     5.4370

     24  H    Isotropic =    30.7477   Anisotropy =     7.3138

     25  H    Isotropic =    30.5144   Anisotropy =     5.7671

     26  H    Isotropic =    30.7566   Anisotropy =     6.9125

     27  H    Isotropic =    30.5241   Anisotropy =     4.9965

     28  H    Isotropic =    30.6943   Anisotropy =     8.0146

     29  H    Isotropic =    30.3261   Anisotropy =     9.7707

     30  H    Isotropic =    31.3684   Anisotropy =     8.5162

     31  H    Isotropic =    30.8224   Anisotropy =     6.8277

     32  H    Isotropic =    30.8730   Anisotropy =    11.1284

 The electronic state is 1-A.
 Alpha  occ. eigenvalues --  -19.67395 -19.62100 -10.67874 -10.55340 -10.53659
 Alpha  occ. eigenvalues --  -10.53441 -10.53190 -10.53092 -10.52979 -10.52936
 Alpha  occ. eigenvalues --  -10.52816 -10.52178  -1.23464  -1.13958  -0.92068
 Alpha  occ. eigenvalues --   -0.90076  -0.86862  -0.82989  -0.78081  -0.74466
 Alpha  occ. eigenvalues --   -0.70118  -0.67050  -0.65258  -0.63855  -0.58143
 Alpha  occ. eigenvalues --   -0.57243  -0.56594  -0.53920  -0.53034  -0.52037
 Alpha  occ. eigenvalues --   -0.50285  -0.49591  -0.48640  -0.47636  -0.46114
 Alpha  occ. eigenvalues --   -0.44716  -0.43955  -0.43118  -0.41435  -0.41064
 Alpha  occ. eigenvalues --   -0.40072  -0.39420  -0.38947  -0.38603  -0.37532
 Alpha  occ. eigenvalues --   -0.36687  -0.36391  -0.35695
 Alpha virt. eigenvalues --    0.04621   0.05998   0.06835   0.07513   0.07960
 Alpha virt. eigenvalues --    0.08189   0.09891   0.10613   0.10955   0.11878
 Alpha virt. eigenvalues --    0.13259   0.13576   0.13885   0.14558   0.15006

 Mulliken charges:
               1
     1  O   -0.412928
     2  C    0.359858
     3  C   -0.355378
     4  C   -0.298668
     5  C   -0.263367
     6  C   -0.299530
     7  C   -0.313139
     8  C   -0.294998
     9  C   -0.286777
    10  C   -0.246600
    11  C   -0.442328
    12  O   -0.333823
    13  H    0.334771
    14  H    0.173260
    15  H    0.176566
    16  H    0.160426
    17  H    0.168650
    18  H    0.150035
    19  H    0.149020
    20  H    0.142742
    21  H    0.152996
    22  H    0.143547
    23  H    0.157462
    24  H    0.145976
    25  H    0.152457
    26  H    0.140255
    27  H    0.145821
    28  H    0.135857
    29  H    0.135213
    30  H    0.137030
    31  H    0.142562
    32  H    0.143031
 Sum of Mulliken charges =  -0.00000

 Dipole moment (field-independent basis, Debye):
    X=              0.9802    Y=             -0.2805    Z=             -1.3883  Tot=              1.7225
 Quadrupole moment (field-independent basis, Debye-Ang):
   XX=            -79.8861   YY=            -74.9794   ZZ=            -81.3694
   XY=              3.7205   XZ=              5.4582   YZ=             -1.6355

 1\1\GINC-NOTCH075\SP\RM062X\def2TZVP\C10H20O2\U6032257\03-Feb-2022\0\\
 # M062X/def2tzvp int=(grid=ultrafine) nmr=giao guess=read geom=check\\
 Ac1.xyz\\0,1\O,0,6.3923161839,-0.4436899993,0.0595356295\C,0,5.0421746
 863,-0.3162594263,0.1246177054\C,0,4.3452543035,-1.5948995778,-0.27516
 78343\C,0,2.8213405498,-1.492532824,-0.1920568441\C,0,2.0849563769,-2.
 7784119616,-0.6145512556\C,0,1.6860140298,-2.8539130505,-2.0964788169\
 C,0,2.8457655624,-2.7933762538,-3.0971142666\C,0,2.4141341891,-2.95496
 92286,-4.5618947483\C,0,1.8661759256,-4.3448264116,-4.9082059299\C,0,1

 Normal termination of Gaussian 16 at Thu Feb  3 08:17:53 2022.
