 Gaussian 16, Revision C.01,

 ----------------------------------------------------------------------
 # B3LYP/6-31G(d,p) empiricaldispersion=GD3BJ int=(grid=ultrafine) opt
 freq=noraman
 ----------------------------------------------------------------------

 -------
 Ac1.xyz
 -------
 Symbolic Z-matrix:
 Charge =  0 Multiplicity = 1

 SCF Done:  E(RB3LYP) =  -543.664521781     A.U. after   13 cycles
 SCF Done:  E(RB3LYP) =  -543.666309232     A.U. after   12 cycles
 SCF Done:  E(RB3LYP) =  -543.665308471     A.U. after   12 cycles
 SCF Done:  E(RB3LYP) =  -543.666582174     A.U. after   10 cycles
 SCF Done:  E(RB3LYP) =  -543.666595012     A.U. after    9 cycles
 SCF Done:  E(RB3LYP) =  -543.666595983     A.U. after    8 cycles
 SCF Done:  E(RB3LYP) =  -543.666596053     A.U. after    6 cycles
 Optimization completed.
    -- Stationary point found.
 Normal termination of Gaussian 16 at Thu Feb  3 08:50:36 2022.

 ----------------------------------------------------------------------
 #N Geom=AllCheck Guess=TCheck SCRF=Check GenChk RB3LYP/6-31G(d,p) Freq
 ----------------------------------------------------------------------

 Structure from the checkpoint file:  "Ac1_clust-26.chk"
 -------
 Ac1.xyz
 -------
 Charge =  0 Multiplicity = 1

 SCF Done:  E(RB3LYP) =  -543.666596053     A.U. after    1 cycles

                      1                      2                      3
                      A                      A                      A
 Frequencies --     18.8800                22.4433                49.8275
 Red. masses --      5.3119                 6.0772                 3.6435
 Frc consts  --      0.0011                 0.0018                 0.0053
 IR Inten    --      0.7221                 0.7873                 0.2836

                      4                      5                      6
                      A                      A                      A
 Frequencies --     52.8737                72.3650                87.7969
 Red. masses --      2.7363                 2.6649                 1.9721
 Frc consts  --      0.0045                 0.0082                 0.0090
 IR Inten    --      0.0514                 0.1153                 0.0320

                      7                      8                      9
                      A                      A                      A
 Frequencies --    118.5844               169.5932               181.5916
 Red. masses --      2.1393                 2.2274                 3.6639
 Frc consts  --      0.0177                 0.0377                 0.0712
 IR Inten    --      0.0260                 0.1042                 0.0546

                     10                     11                     12
                      A                      A                      A
 Frequencies --    213.2763               241.6178               264.1123
 Red. masses --      2.5846                 1.3464                 2.4240
 Frc consts  --      0.0693                 0.0463                 0.0996
 IR Inten    --      0.0440                 0.0169                 0.0967

                     13                     14                     15
                      A                      A                      A
 Frequencies --    274.5812               302.4828               414.7245
 Red. masses --      1.6596                 2.2962                 2.5139
 Frc consts  --      0.0737                 0.1238                 0.2547
 IR Inten    --      0.0565                 0.0791                 0.0922

                     16                     17                     18
                      A                      A                      A
 Frequencies --    420.5049               476.0176               519.6297
 Red. masses --      2.8985                 3.0555                 2.3790
 Frc consts  --      0.3020                 0.4079                 0.3785
 IR Inten    --      3.3537                 1.6630                 0.5711

                     19                     20                     21
                      A                      A                      A
 Frequencies --    579.2039               627.1481               725.5811
 Red. masses --      2.2703                 1.6400                 1.2221
 Frc consts  --      0.4487                 0.3801                 0.3791
 IR Inten    --     48.0394                70.0993                13.3479

                     22                     23                     24
                      A                      A                      A
 Frequencies --    729.1012               748.6867               767.5511
 Red. masses --      1.9492                 1.3148                 1.2405
 Frc consts  --      0.6105                 0.4342                 0.4306
 IR Inten    --     36.6414                 7.5189                 6.4884

                     25                     26                     27
                      A                      A                      A
 Frequencies --    800.3771               848.7596               858.6236
 Red. masses --      1.2970                 2.0981                 1.7211
 Frc consts  --      0.4895                 0.8905                 0.7476
 IR Inten    --      1.6734                 0.1642                 2.0249

                     28                     29                     30
                      A                      A                      A
 Frequencies --    900.9358               909.3356               924.1658
 Red. masses --      2.8641                 1.5810                 2.1687
 Frc consts  --      1.3697                 0.7703                 1.0913
 IR Inten    --      6.0419                 0.8012                 0.7841

                     31                     32                     33
                      A                      A                      A
 Frequencies --    953.9855               988.3757              1022.4377
 Red. masses --      1.7442                 1.6902                 2.1854
 Frc consts  --      0.9352                 0.9728                 1.3460
 IR Inten    --      3.8147                 2.9982                 0.2038

                     34                     35                     36
                      A                      A                      A
 Frequencies --   1049.2481              1062.2365              1067.4990
 Red. masses --      2.4646                 1.7739                 1.6945
 Frc consts  --      1.5986                 1.1793                 1.1377
 IR Inten    --      0.4200                 0.5014                28.9923

                     37                     38                     39
                      A                      A                      A
 Frequencies --   1085.8714              1106.3973              1112.6116
 Red. masses --      2.3714                 2.2310                 1.4447
 Frc consts  --      1.6475                 1.6091                 1.0537
 IR Inten    --      0.9070                 0.1900                62.2974

                     40                     41                     42
                      A                      A                      A
 Frequencies --   1147.5243              1175.9523              1211.9528
 Red. masses --      1.9247                 1.8702                 1.6837
 Frc consts  --      1.4933                 1.5238                 1.4571
 IR Inten    --      1.3210                18.4289                50.4977

                     43                     44                     45
                      A                      A                      A
 Frequencies --   1232.0138              1257.5813              1284.3437
 Red. masses --      1.4801                 1.4012                 1.3759
 Frc consts  --      1.3236                 1.3056                 1.3372
 IR Inten    --     78.9967                 8.2354                 0.5979

                     46                     47                     48
                      A                      A                      A
 Frequencies --   1292.0742              1306.4303              1325.2750
 Red. masses --      1.2953                 1.3082                 1.1900
 Frc consts  --      1.2741                 1.3155                 1.2315
 IR Inten    --      2.0369                 2.4958                 2.0037

                     49                     50                     51
                      A                      A                      A
 Frequencies --   1330.5232              1335.2561              1345.1539
 Red. masses --      1.2726                 1.1328                 1.1009
 Frc consts  --      1.3273                 1.1900                 1.1737
 IR Inten    --      4.5238                 0.1158                 1.4864

                     52                     53                     54
                      A                      A                      A
 Frequencies --   1350.2961              1384.1446              1391.5696
 Red. masses --      1.1513                 2.1077                 1.4434
 Frc consts  --      1.2368                 2.3792                 1.6469
 IR Inten    --      1.9753                62.4427                 0.4977

                     55                     56                     57
                      A                      A                      A
 Frequencies --   1398.0438              1398.9734              1414.7032
 Red. masses --      1.4284                 1.5077                 1.5425
 Frc consts  --      1.6449                 1.7386                 1.8188
 IR Inten    --     11.8428                16.1538                 3.0887

                     58                     59                     60
                      A                      A                      A
 Frequencies --   1420.8816              1427.7166              1489.5045
 Red. masses --      1.5959                 1.2452                 1.0947
 Frc consts  --      1.8984                 1.4954                 1.4310
 IR Inten    --      5.2999                 1.0326                 2.4698

                     61                     62                     63
                      A                      A                      A
 Frequencies --   1495.8414              1498.1564              1504.3296
 Red. masses --      1.0744                 1.0797                 1.0681
 Frc consts  --      1.4164                 1.4278                 1.4241
 IR Inten    --      1.6216                 2.3413                 1.3421

                     64                     65                     66
                      A                      A                      A
 Frequencies --   1507.0598              1511.0197              1512.7662
 Red. masses --      1.0835                 1.0854                 1.0939
 Frc consts  --      1.4499                 1.4601                 1.4749
 IR Inten    --      2.3861                 2.8183                 3.8060

                     67                     68                     69
                      A                      A                      A
 Frequencies --   1514.5096              1520.8094              1526.1167
 Red. masses --      1.0411                 1.0870                 1.0892
 Frc consts  --      1.4070                 1.4813                 1.4947
 IR Inten    --      6.4974                 4.9644                 1.4005

                     70                     71                     72
                      A                      A                      A
 Frequencies --   1849.3893              3018.3934              3019.0707
 Red. masses --      9.5688                 1.0610                 1.0594
 Frc consts  --     19.2826                 5.6952                 5.6894
 IR Inten    --    317.0415                12.8942                 1.5575

                     73                     74                     75
                      A                      A                      A
 Frequencies --   3020.5061              3027.4039              3030.3132
 Red. masses --      1.0605                 1.0619                 1.0608
 Frc consts  --      5.7004                 5.7344                 5.7392
 IR Inten    --      6.0901                 2.9102                39.6737

                     76                     77                     78
                      A                      A                      A
 Frequencies --   3032.4753              3037.9470              3042.3739
 Red. masses --      1.0636                 1.0378                 1.0722
 Frc consts  --      5.7628                 5.6434                 5.8475
 IR Inten    --     75.4435                41.8282                 4.4862

                     79                     80                     81
                      A                      A                      A
 Frequencies --   3047.7916              3049.5364              3056.2625
 Red. masses --      1.0909                 1.0983                 1.0971
 Frc consts  --      5.9702                 6.0179                 6.0380
 IR Inten    --     19.2161                 1.0470                31.0925

                     82                     83                     84
                      A                      A                      A
 Frequencies --   3064.2299              3069.1753              3073.7114
 Red. masses --      1.0960                 1.0690                 1.1034
 Frc consts  --      6.0630                 5.9329                 6.1421
 IR Inten    --      9.9937                 6.2280                76.8557

                     85                     86                     87
                      A                      A                      A
 Frequencies --   3081.0481              3090.0078              3106.4540
 Red. masses --      1.1009                 1.1025                 1.1028
 Frc consts  --      6.1572                 6.2025                 6.2701
 IR Inten    --     93.4548                43.3136                67.6999

                     88                     89                     90
                      A                      A                      A
 Frequencies --   3112.2344              3131.7541              3754.0436
 Red. masses --      1.1020                 1.1036                 1.0641
 Frc consts  --      6.2887                 6.3771                 8.8356
 IR Inten    --     40.7890                19.8927                49.6861

 - Thermochemistry -
 -------------------
 Temperature   298.150 Kelvin.  Pressure   1.00000 Atm.
 Atom     1 has atomic number  8 and mass  15.99491

 Molecular mass:   172.14633 amu.
 Principal axes and moments of inertia in atomic units:
                           1         2         3
     Eigenvalues --  1127.779446744.338577308.09820
           X            0.99994   0.01049  -0.00333
           Y           -0.01047   0.99993   0.00578
           Z            0.00339  -0.00575   0.99998
 This molecule is an asymmetric top.
 Rotational symmetry number  1.
 Warning -- assumption of classical behavior for rotation
           may cause significant error
 Rotational temperatures (Kelvin)      0.07680     0.01284     0.01185
 Rotational constants (GHZ):           1.60026     0.26759     0.24695
 Zero-point vibrational energy     765572.2 (Joules/Mol)
                                  182.97615 (Kcal/Mol)
 Warning -- explicit consideration of  19 degrees of freedom as
           vibrations may cause significant error
 Vibrational temperatures:     27.16    32.29    71.69    76.07   104.12
          (Kelvin)            126.32   170.62   244.01   261.27   306.86
                              347.63   380.00   395.06   435.21   596.70
                              605.01   684.88   747.63   833.35   902.33
                             1043.95  1049.01  1077.19  1104.33  1151.56
                             1221.18  1235.37  1296.25  1308.33  1329.67
                             1372.57  1422.05  1471.06  1509.63  1528.32
                             1535.89  1562.33  1591.86  1600.80  1651.03
                             1691.93  1743.73  1772.59  1809.38  1847.88
                             1859.01  1879.66  1906.78  1914.33  1921.14
                             1935.38  1942.77  1991.48  2002.16  2011.47
                             2012.81  2035.44  2044.33  2054.17  2143.06
                             2152.18  2155.51  2164.39  2168.32  2174.02
                             2176.53  2179.04  2188.11  2195.74  2660.86
                             4342.79  4343.77  4345.83  4355.76  4359.94
                             4363.06  4370.93  4377.30  4385.09  4387.60
                             4397.28  4408.74  4415.86  4422.39  4432.94
                             4445.83  4469.49  4477.81  4505.90  5401.23

 Zero-point correction=                           0.291591 (Hartree/Particle)
 Thermal correction to Energy=                    0.306354
 Thermal correction to Enthalpy=                  0.307298
 Thermal correction to Gibbs Free Energy=         0.246554
 Sum of electronic and zero-point Energies=           -543.375005
 Sum of electronic and thermal Energies=              -543.360242
 Sum of electronic and thermal Enthalpies=            -543.359298
 Sum of electronic and thermal Free Energies=         -543.420042

                     E (Thermal)             CV                S
                      KCal/Mol        Cal/Mol-Kelvin    Cal/Mol-Kelvin
 Total                  192.240             52.440            127.846
 Electronic               0.000              0.000              0.000
 Translational            0.889              2.981             41.337
 Rotational               0.889              2.981             32.386
 Vibrational            190.463             46.479             54.123
 Vibration     1          0.593              1.986              6.749
 Vibration     2          0.593              1.985              6.405
 Vibration     3          0.595              1.978              4.824
 Vibration     4          0.596              1.976              4.707
 Vibration     5          0.598              1.967              4.088
 Vibration     6          0.601              1.958              3.709
 Vibration     7          0.609              1.934              3.123
 Vibration     8          0.625              1.880              2.440
 Vibration     9          0.630              1.865              2.312
 Vibration    10          0.644              1.821              2.015
 Vibration    11          0.658              1.777              1.791
 Vibration    12          0.671              1.739              1.634
 Vibration    13          0.677              1.720              1.567
 Vibration    14          0.694              1.669              1.403
 Vibration    15          0.778              1.438              0.910
 Vibration    16          0.783              1.426              0.890
 Vibration    17          0.833              1.303              0.721
 Vibration    18          0.875              1.207              0.611
 Vibration    19          0.936              1.076              0.487

                           ! Non-Optimized Parameters !
 Normal termination of Gaussian 16 at Thu Feb  3 08:52:00 2022.

 ----------------------------------------------------------------------
 # M062X/def2tzvp int=(grid=ultrafine) pop=nbo7 polar prop=efg volume g
 uess=read geom=check
 ----------------------------------------------------------------------

 -------
 Ac1.xyz
 -------
 Structure from the checkpoint file:  "Ac1_clust-26.chk"
 Charge =  0 Multiplicity = 1

 SCF Done:  E(RM062X) =  -543.541838141     A.U. after   11 cycles

  Exact polarizability:     149.347       2.069     121.951       0.592       1.209     107.515
 Approx polarizability:     151.796       2.808     146.098       1.748       0.805     137.305

 Summary of Natural Population Analysis:

                                     Natural Population
             Natural    ---------------------------------------------
  Atom No    Charge        Core      Valence    Rydberg      Total
 --------------------------------------------------------------------
    O  1   -0.69503      2.00000     6.67308    0.02196     8.69503
    C  2    0.79720      1.99999     3.16600    0.03681     5.20280
    C  3   -0.51069      1.99999     4.49706    0.01364     6.51069
    C  4   -0.38259      1.99999     4.37224    0.01036     6.38259
    C  5   -0.38809      1.99999     4.37698    0.01112     6.38809
    C  6   -0.40374      1.99999     4.39199    0.01175     6.40374
    C  7   -0.39273      1.99999     4.38148    0.01126     6.39273
    C  8   -0.38683      1.99999     4.37590    0.01093     6.38683
    C  9   -0.39574      1.99999     4.38437    0.01138     6.39574
    C 10   -0.39887      1.99999     4.38827    0.01061     6.39887
    C 11   -0.60028      1.99999     4.59169    0.00860     6.60028
    O 12   -0.59196      2.00000     6.56578    0.02618     8.59196
    H 13    0.49377      0.00000     0.50286    0.00338     0.50623
    H 14    0.22930      0.00000     0.76918    0.00152     0.77070
    H 15    0.22817      0.00000     0.77027    0.00155     0.77183
    H 16    0.21034      0.00000     0.78790    0.00176     0.78966
    H 17    0.20917      0.00000     0.78931    0.00152     0.79083
    H 18    0.20486      0.00000     0.79353    0.00161     0.79514
    H 19    0.19546      0.00000     0.80260    0.00194     0.80454
    H 20    0.19378      0.00000     0.80430    0.00192     0.80622
    H 21    0.19646      0.00000     0.80156    0.00198     0.80354
    H 22    0.19513      0.00000     0.80301    0.00186     0.80487
    H 23    0.20200      0.00000     0.79635    0.00164     0.79800
    H 24    0.19898      0.00000     0.79936    0.00166     0.80102
    H 25    0.20007      0.00000     0.79827    0.00166     0.79993
    H 26    0.20137      0.00000     0.79694    0.00169     0.79863
    H 27    0.19334      0.00000     0.80481    0.00185     0.80666
    H 28    0.19332      0.00000     0.80491    0.00177     0.80668
    H 29    0.19471      0.00000     0.80342    0.00187     0.80529
    H 30    0.20042      0.00000     0.79828    0.00129     0.79958
    H 31    0.20055      0.00000     0.79817    0.00128     0.79945
    H 32    0.20812      0.00000     0.79090    0.00098     0.79188
 ====================================================================
 * Total *  0.00000     23.99992    71.78076    0.21932    96.00000

 1\1\GINC-NOTCH075\SP\RM062X\def2TZVP\C10H20O2\U6032257\03-Feb-2022\0\\
 # M062X/def2tzvp int=(grid=ultrafine) pop=nbo7 polar prop=efg volume g
 uess=read geom=check\\Ac1.xyz\\0,1\O,0,6.1071385695,-0.3431436653,-0.6
 783522674\C,0,5.075083278,-0.2164177522,0.1970027491\C,0,3.8123908026,
 -0.8454055638,-0.337724718\C,0,3.9526063722,-2.3676406727,-0.526125358
 3\C,0,2.653605089,-3.0419375409,-0.9833250473\C,0,2.161788765,-2.59934
 91053,-2.3650954466\C,0,0.9289249481,-3.3796695051,-2.8314195993\C,0,0
 .3419348129,-2.8925161473,-4.164383488\C,0,1.3055338544,-2.9348474374,

 Normal termination of Gaussian 16 at Thu Feb  3 08:55:11 2022.
 Gaussian 16:  ES64L-G16RevC.01  3-Jul-2019

 --------------------------------------------------------------------
 # M062X/def2tzvp int=(grid=ultrafine) nmr=giao guess=read geom=check
 --------------------------------------------------------------------

 -------
 Ac1.xyz
 -------
 Structure from the checkpoint file:  "Ac1_clust-26.chk"
 Charge =  0 Multiplicity = 1

                         Standard orientation:
 ---------------------------------------------------------------------
 Center     Atomic      Atomic             Coordinates (Angstroms)
 Number     Number       Type             X           Y           Z
 ---------------------------------------------------------------------
      1          8           0       -3.663128    1.780598   -0.134092
      2          6           0       -3.913395    0.457267   -0.317406
      3          6           0       -2.639383   -0.350097   -0.349133
      4          6           0       -1.882122   -0.299221    0.991136
      5          6           0       -0.630591   -1.184858    1.011846
      6          6           0        0.459328   -0.765554    0.020223
      7          6           0        1.734465   -1.603606    0.154409
      8          6           0        2.811140   -1.284799   -0.893350
      9          6           0        3.300722    0.170826   -0.908330
     10          6           0        3.906041    0.648240    0.415615
     11          6           0        4.465349    2.069902    0.330846
     12          8           0       -5.038570    0.022196   -0.423124
     13          1           0       -4.532931    2.213592   -0.108332
     14          1           0       -2.005839    0.045537   -1.150043
     15          1           0       -2.911692   -1.377583   -0.601887
     16          1           0       -1.607236    0.739675    1.204855
     17          1           0       -2.561566   -0.615997    1.791334
     18          1           0       -0.211280   -1.168040    2.026197
     19          1           0       -0.917590   -2.227805    0.819327
     20          1           0        0.086648   -0.848708   -1.009363
     21          1           0        0.691213    0.296261    0.175480
     22          1           0        2.145039   -1.473881    1.163974
     23          1           0        1.471467   -2.666508    0.073449
     24          1           0        2.421878   -1.536355   -1.888861
     25          1           0        3.671132   -1.946642   -0.726111
     26          1           0        4.052613    0.278228   -1.701281
     27          1           0        2.476171    0.839702   -1.187950
     28          1           0        3.147937    0.605193    1.207410
     29          1           0        4.702015   -0.045131    0.719593
     30          1           0        5.254848    2.138736   -0.425833
     31          1           0        3.682009    2.784613    0.054249
     32          1           0        4.889430    2.394161    1.286401
 ---------------------------------------------------------------------

 SCF Done:  E(RM062X) =  -543.541838141     A.U. after    1 cycles

      1  O    Isotropic =   104.6185   Anisotropy =   230.7383

      2  C    Isotropic =    -9.4078   Anisotropy =   127.1137

      3  C    Isotropic =   147.8424   Anisotropy =    42.4636

      4  C    Isotropic =   155.9941   Anisotropy =    20.0860

      5  C    Isotropic =   152.6338   Anisotropy =    24.3154

      6  C    Isotropic =   157.5624   Anisotropy =    20.0909

      7  C    Isotropic =   156.8812   Anisotropy =    28.8935

      8  C    Isotropic =   154.6936   Anisotropy =    11.8236

      9  C    Isotropic =   155.0021   Anisotropy =    30.9448

     10  C    Isotropic =   163.1574   Anisotropy =    13.3574

     11  C    Isotropic =   170.0809   Anisotropy =    28.3178

     12  O    Isotropic =  -171.4774   Anisotropy =   616.5875

     13  H    Isotropic =    25.8598   Anisotropy =    11.2885

     14  H    Isotropic =    29.3368   Anisotropy =     3.4567

     15  H    Isotropic =    30.0273   Anisotropy =     6.3938

     16  H    Isotropic =    30.1113   Anisotropy =     6.2329

     17  H    Isotropic =    30.1713   Anisotropy =     8.1706

     18  H    Isotropic =    30.4432   Anisotropy =     6.7709

     19  H    Isotropic =    30.7518   Anisotropy =     6.7120

     20  H    Isotropic =    30.8902   Anisotropy =     6.2545

     21  H    Isotropic =    30.7482   Anisotropy =     6.9020

     22  H    Isotropic =    30.4926   Anisotropy =     4.9544

     23  H    Isotropic =    30.6934   Anisotropy =     7.8956

     24  H    Isotropic =    30.4417   Anisotropy =     8.5541

     25  H    Isotropic =    30.4265   Anisotropy =     9.2025

     26  H    Isotropic =    30.6538   Anisotropy =     8.1455

     27  H    Isotropic =    30.5106   Anisotropy =     4.5616

     28  H    Isotropic =    30.4641   Anisotropy =     6.5174

     29  H    Isotropic =    30.9794   Anisotropy =     7.7450

     30  H    Isotropic =    31.0619   Anisotropy =     9.3124

     31  H    Isotropic =    31.0937   Anisotropy =     8.2410

     32  H    Isotropic =    30.7387   Anisotropy =    10.9265

 The electronic state is 1-A.
 Alpha  occ. eigenvalues --  -19.67423 -19.62001 -10.67827 -10.55323 -10.54558
 Alpha  occ. eigenvalues --  -10.53787 -10.53375 -10.53118 -10.53030 -10.53027
 Alpha  occ. eigenvalues --  -10.52845 -10.52321  -1.23424  -1.13877  -0.92405
 Alpha  occ. eigenvalues --   -0.90379  -0.86978  -0.83105  -0.78408  -0.73613
 Alpha  occ. eigenvalues --   -0.69569  -0.68555  -0.66429  -0.63596  -0.58280
 Alpha  occ. eigenvalues --   -0.57264  -0.55582  -0.54323  -0.53462  -0.51816
 Alpha  occ. eigenvalues --   -0.50450  -0.49215  -0.48608  -0.47928  -0.45939
 Alpha  occ. eigenvalues --   -0.45649  -0.44346  -0.42794  -0.41973  -0.41750
 Alpha  occ. eigenvalues --   -0.40125  -0.39696  -0.38985  -0.38771  -0.37325
 Alpha  occ. eigenvalues --   -0.37219  -0.36823  -0.35269
 Alpha virt. eigenvalues --    0.04413   0.05506   0.06595   0.07556   0.07625
 Alpha virt. eigenvalues --    0.08555   0.09843   0.10309   0.11026   0.13031
 Alpha virt. eigenvalues --    0.13212   0.13586   0.13811   0.14312   0.15259

 Mulliken charges:
               1
     1  O   -0.411893
     2  C    0.322258
     3  C   -0.281356
     4  C   -0.306291
     5  C   -0.264640
     6  C   -0.340597
     7  C   -0.310918
     8  C   -0.276133
     9  C   -0.312330
    10  C   -0.253042
    11  C   -0.424273
    12  O   -0.331192
    13  H    0.336254
    14  H    0.163958
    15  H    0.161753
    16  H    0.170031
    17  H    0.156981
    18  H    0.148236
    19  H    0.155946
    20  H    0.150549
    21  H    0.154482
    22  H    0.163057
    23  H    0.148666
    24  H    0.147631
    25  H    0.150265
    26  H    0.145611
    27  H    0.153815
    28  H    0.131786
    29  H    0.136201
    30  H    0.137253
    31  H    0.136101
    32  H    0.141827
 Sum of Mulliken charges =  -0.00000

 Dipole moment (field-independent basis, Debye):
    X=              2.0224    Y=              0.5141    Z=              0.4044  Tot=              2.1255
 Quadrupole moment (field-independent basis, Debye-Ang):
   XX=            -91.6258   YY=            -75.4456   ZZ=            -76.9108
   XY=             -6.9105   XZ=             -2.2533   YZ=              0.0731

 1\1\GINC-NOTCH075\SP\RM062X\def2TZVP\C10H20O2\U6032257\03-Feb-2022\0\\
 # M062X/def2tzvp int=(grid=ultrafine) nmr=giao guess=read geom=check\\
 Ac1.xyz\\0,1\O,0,6.1071385695,-0.3431436653,-0.6783522674\C,0,5.075083
 278,-0.2164177522,0.1970027491\C,0,3.8123908026,-0.8454055638,-0.33772
 4718\C,0,3.9526063722,-2.3676406727,-0.5261253583\C,0,2.653605089,-3.0
 419375409,-0.9833250473\C,0,2.161788765,-2.5993491053,-2.3650954466\C,
 0,0.9289249481,-3.3796695051,-2.8314195993\C,0,0.3419348129,-2.8925161
 473,-4.164383488\C,0,1.3055338544,-2.9348474374,-5.3595580706\C,0,1.86

 Normal termination of Gaussian 16 at Thu Feb  3 08:56:30 2022.
