 Gaussian 16, Revision C.01,

 ----------------------------------------------------------------------
 # B3LYP/6-31G(d,p) empiricaldispersion=GD3BJ int=(grid=ultrafine) opt
 freq=noraman
 ----------------------------------------------------------------------

 -------
 Ac1.xyz
 -------
 Symbolic Z-matrix:
 Charge =  0 Multiplicity = 1

 SCF Done:  E(RB3LYP) =  -543.665292547     A.U. after   13 cycles
 SCF Done:  E(RB3LYP) =  -543.668142253     A.U. after   12 cycles
 SCF Done:  E(RB3LYP) =  -543.667661117     A.U. after   12 cycles
 SCF Done:  E(RB3LYP) =  -543.668507667     A.U. after   12 cycles
 SCF Done:  E(RB3LYP) =  -543.668617177     A.U. after   12 cycles
 SCF Done:  E(RB3LYP) =  -543.668682240     A.U. after   11 cycles
 SCF Done:  E(RB3LYP) =  -543.668695623     A.U. after    9 cycles
 SCF Done:  E(RB3LYP) =  -543.668697109     A.U. after    9 cycles
 SCF Done:  E(RB3LYP) =  -543.668697564     A.U. after    7 cycles
 SCF Done:  E(RB3LYP) =  -543.668697654     A.U. after    7 cycles
 SCF Done:  E(RB3LYP) =  -543.668697687     A.U. after    7 cycles
 SCF Done:  E(RB3LYP) =  -543.668697744     A.U. after    7 cycles
 SCF Done:  E(RB3LYP) =  -543.668697781     A.U. after    7 cycles
 SCF Done:  E(RB3LYP) =  -543.668697812     A.U. after    6 cycles
 Optimization completed.
    -- Stationary point found.
 Normal termination of Gaussian 16 at Thu Feb  3 10:52:04 2022.

 ----------------------------------------------------------------------
 #N Geom=AllCheck Guess=TCheck SCRF=Check GenChk RB3LYP/6-31G(d,p) Freq
 ----------------------------------------------------------------------

 Structure from the checkpoint file:  "Ac1_clust-3.chk"
 -------
 Ac1.xyz
 -------
 Charge =  0 Multiplicity = 1

 SCF Done:  E(RB3LYP) =  -543.668697812     A.U. after    1 cycles

                      1                      2                      3
                      A                      A                      A
 Frequencies --     18.5491                26.2984                38.8165
 Red. masses --      5.0561                 4.8373                 4.7531
 Frc consts  --      0.0010                 0.0020                 0.0042
 IR Inten    --      0.2333                 0.6849                 0.7085

                      4                      5                      6
                      A                      A                      A
 Frequencies --     59.6873                77.1072               102.9934
 Red. masses --      2.8695                 1.9107                 3.3317
 Frc consts  --      0.0060                 0.0067                 0.0208
 IR Inten    --      0.0630                 0.0224                 0.0072

                      7                      8                      9
                      A                      A                      A
 Frequencies --    126.8687               207.6838               219.5544
 Red. masses --      2.8260                 2.3853                 2.3041
 Frc consts  --      0.0268                 0.0606                 0.0654
 IR Inten    --      0.0800                 0.1794                 0.0472

                     10                     11                     12
                      A                      A                      A
 Frequencies --    244.8729               248.6933               272.3601
 Red. masses --      1.2960                 2.2320                 1.7276
 Frc consts  --      0.0458                 0.0813                 0.0755
 IR Inten    --      0.0229                 0.1165                 0.0345

                     13                     14                     15
                      A                      A                      A
 Frequencies --    293.8905               298.8830               367.1449
 Red. masses --      2.2304                 2.3311                 2.5445
 Frc consts  --      0.1135                 0.1227                 0.2021
 IR Inten    --      0.2506                 0.5243                 0.5988

                     16                     17                     18
                      A                      A                      A
 Frequencies --    439.5836               486.9795               550.5980
 Red. masses --      2.6544                 2.7217                 2.4942
 Frc consts  --      0.3022                 0.3803                 0.4455
 IR Inten    --      2.9462                 1.4649                 6.1012

                     19                     20                     21
                      A                      A                      A
 Frequencies --    566.8563               621.8648               703.5075
 Red. masses --      3.5336                 1.3973                 1.5066
 Frc consts  --      0.6690                 0.3184                 0.4393
 IR Inten    --     26.8720                71.5762                50.8794

                     22                     23                     24
                      A                      A                      A
 Frequencies --    726.5107               750.6743               780.1565
 Red. masses --      1.4054                 1.1760                 1.5792
 Frc consts  --      0.4370                 0.3905                 0.5663
 IR Inten    --      6.8432                 8.1212                12.6105

                     25                     26                     27
                      A                      A                      A
 Frequencies --    804.7977               831.8753               853.3200
 Red. masses --      1.8867                 2.0140                 2.0438
 Frc consts  --      0.7200                 0.8212                 0.8768
 IR Inten    --      0.8158                 1.1292                 4.7032

                     28                     29                     30
                      A                      A                      A
 Frequencies --    867.8590               894.9976               930.5357
 Red. masses --      1.7092                 1.7372                 1.7502
 Frc consts  --      0.7585                 0.8199                 0.8929
 IR Inten    --      4.4227                 0.5849                 2.2165

                     31                     32                     33
                      A                      A                      A
 Frequencies --    967.9066               995.0998              1023.4353
 Red. masses --      1.8873                 1.5083                 2.1756
 Frc consts  --      1.0417                 0.8800                 1.3426
 IR Inten    --      4.9800                 6.8874                 2.0669

                     34                     35                     36
                      A                      A                      A
 Frequencies --   1041.1353              1053.6709              1072.7735
 Red. masses --      2.2220                 1.7829                 1.7298
 Frc consts  --      1.4191                 1.1662                 1.1729
 IR Inten    --     12.7459                20.7372                 5.4088

                     37                     38                     39
                      A                      A                      A
 Frequencies --   1080.2563              1102.3867              1119.2234
 Red. masses --      2.3539                 1.6891                 1.8154
 Frc consts  --      1.6184                 1.2094                 1.3399
 IR Inten    --      0.4254                21.2070                47.0491

                     40                     41                     42
                      A                      A                      A
 Frequencies --   1139.0467              1183.3313              1200.8942
 Red. masses --      1.9723                 1.9325                 1.4671
 Frc consts  --      1.5076                 1.5943                 1.2465
 IR Inten    --      1.6633                45.2154                 2.1712

                     43                     44                     45
                      A                      A                      A
 Frequencies --   1226.1844              1242.8417              1272.1907
 Red. masses --      1.5943                 1.3720                 1.3678
 Frc consts  --      1.4123                 1.2486                 1.3043
 IR Inten    --     51.9128                22.0057                 1.7594

                     46                     47                     48
                      A                      A                      A
 Frequencies --   1306.1281              1313.0364              1324.5177
 Red. masses --      1.3083                 1.3175                 1.3500
 Frc consts  --      1.3151                 1.3383                 1.3954
 IR Inten    --      1.2564                 0.5451                 0.6641

                     49                     50                     51
                      A                      A                      A
 Frequencies --   1333.0643              1336.2526              1346.5574
 Red. masses --      1.2000                 1.3147                 1.1803
 Frc consts  --      1.2564                 1.3831                 1.2609
 IR Inten    --      0.2448                14.3178                 6.5874

                     52                     53                     54
                      A                      A                      A
 Frequencies --   1359.6097              1374.8013              1381.9416
 Red. masses --      1.2215                 1.1698                 1.9269
 Frc consts  --      1.3303                 1.3027                 2.1682
 IR Inten    --      3.7211                 0.3105                37.5177

                     55                     56                     57
                      A                      A                      A
 Frequencies --   1394.1560              1412.2951              1419.3547
 Red. masses --      1.4168                 1.5411                 1.5047
 Frc consts  --      1.6225                 1.8110                 1.7860
 IR Inten    --      5.7732                 0.2766                 1.3456

                     58                     59                     60
                      A                      A                      A
 Frequencies --   1424.2747              1427.2750              1484.7069
 Red. masses --      1.5354                 1.2532                 1.0917
 Frc consts  --      1.8351                 1.5042                 1.4178
 IR Inten    --      1.6950                 0.5759                 9.0569

                     61                     62                     63
                      A                      A                      A
 Frequencies --   1497.3451              1499.9529              1503.7081
 Red. masses --      1.0754                 1.0789                 1.0791
 Frc consts  --      1.4206                 1.4301                 1.4376
 IR Inten    --      1.1232                 0.1119                 1.7712

                     64                     65                     66
                      A                      A                      A
 Frequencies --   1508.0380              1510.4477              1514.1737
 Red. masses --      1.0862                 1.0744                 1.0448
 Frc consts  --      1.4555                 1.4441                 1.4113
 IR Inten    --      2.5249                 0.0458                 8.1926

                     67                     68                     69
                      A                      A                      A
 Frequencies --   1514.6242              1520.4493              1526.1315
 Red. masses --      1.0806                 1.0958                 1.0862
 Frc consts  --      1.4606                 1.4925                 1.4906
 IR Inten    --      4.8515                 0.1996                 3.2575

                     70                     71                     72
                      A                      A                      A
 Frequencies --   1850.4351              3013.2279              3021.8558
 Red. masses --      9.6901                 1.0602                 1.0618
 Frc consts  --     19.5491                 5.6714                 5.7130
 IR Inten    --    291.7442                13.4784                18.8524

                     73                     74                     75
                      A                      A                      A
 Frequencies --   3026.4642              3029.2549              3033.6033
 Red. masses --      1.0636                 1.0634                 1.0648
 Frc consts  --      5.7399                 5.7491                 5.7733
 IR Inten    --     24.5936                38.5093                41.5619

                     76                     77                     78
                      A                      A                      A
 Frequencies --   3036.9678              3039.3088              3046.4489
 Red. masses --      1.0372                 1.0628                 1.0972
 Frc consts  --      5.6364                 5.7844                 5.9998
 IR Inten    --     44.0215                16.3028                 8.9050

                     79                     80                     81
                      A                      A                      A
 Frequencies --   3048.4365              3056.2094              3058.9065
 Red. masses --      1.0691                 1.0973                 1.0712
 Frc consts  --      5.8537                 6.0387                 5.9052
 IR Inten    --     24.1347                19.4537                10.8260

                     82                     83                     84
                      A                      A                      A
 Frequencies --   3062.0750              3072.3518              3079.8530
 Red. masses --      1.0958                 1.1000                 1.0957
 Frc consts  --      6.0538                 6.1175                 6.1238
 IR Inten    --     20.6710                 6.0397                70.9064

                     85                     86                     87
                      A                      A                      A
 Frequencies --   3086.7070              3105.7909              3110.0127
 Red. masses --      1.1017                 1.1028                 1.0988
 Frc consts  --      6.1844                 6.2673                 6.2618
 IR Inten    --     89.6747                66.6014                14.5840

                     88                     89                     90
                      A                      A                      A
 Frequencies --   3111.1948              3130.5245              3756.4959
 Red. masses --      1.1018                 1.0984                 1.0642
 Frc consts  --      6.2834                 6.3420                 8.8482
 IR Inten    --     41.9551                25.9798                47.6581

 - Thermochemistry -
 -------------------
 Temperature   298.150 Kelvin.  Pressure   1.00000 Atm.
 Atom     1 has atomic number  8 and mass  15.99491

 Molecular mass:   172.14633 amu.
 Principal axes and moments of inertia in atomic units:
                           1         2         3
     Eigenvalues --  1710.831123783.686304802.01641
           X            0.99916  -0.04041  -0.00713
           Y            0.04032   0.99911  -0.01225
           Z            0.00762   0.01195   0.99990
 This molecule is an asymmetric top.
 Rotational symmetry number  1.
 Warning -- assumption of classical behavior for rotation
           may cause significant error
 Rotational temperatures (Kelvin)      0.05063     0.02289     0.01804
 Rotational constants (GHZ):           1.05489     0.47698     0.37583
 Zero-point vibrational energy     766464.5 (Joules/Mol)
                                  183.18942 (Kcal/Mol)
 Warning -- explicit consideration of  19 degrees of freedom as
           vibrations may cause significant error
 Vibrational temperatures:     26.69    37.84    55.85    85.88   110.94
          (Kelvin)            148.18   182.54   298.81   315.89   352.32
                              357.81   391.87   422.84   430.03   528.24
                              632.46   700.65   792.19   815.58   894.72
                             1012.19  1045.29  1080.05  1122.47  1157.92
                             1196.88  1227.74  1248.66  1287.70  1338.83
                             1392.60  1431.73  1472.50  1497.96  1516.00
                             1543.48  1554.25  1586.09  1610.31  1638.83
                             1702.55  1727.82  1764.21  1788.17  1830.40
                             1879.23  1889.17  1905.69  1917.98  1922.57
                             1937.40  1956.18  1978.03  1988.31  2005.88
                             2031.98  2042.13  2049.21  2053.53  2136.16
                             2154.35  2158.10  2163.50  2169.73  2173.20
                             2178.56  2179.21  2187.59  2195.76  2662.36
                             4335.36  4347.78  4354.41  4358.42  4364.68
                             4369.52  4372.89  4383.16  4386.02  4397.20
                             4401.08  4405.64  4420.43  4431.22  4441.08
                             4468.54  4474.61  4476.32  4504.13  5404.76

 Zero-point correction=                           0.291931 (Hartree/Particle)
 Thermal correction to Energy=                    0.306461
 Thermal correction to Enthalpy=                  0.307405
 Thermal correction to Gibbs Free Energy=         0.247726
 Sum of electronic and zero-point Energies=           -543.376767
 Sum of electronic and thermal Energies=              -543.362237
 Sum of electronic and thermal Enthalpies=            -543.361293
 Sum of electronic and thermal Free Energies=         -543.420972

                     E (Thermal)             CV                S
                      KCal/Mol        Cal/Mol-Kelvin    Cal/Mol-Kelvin
 Total                  192.307             52.323            125.607
 Electronic               0.000              0.000              0.000
 Translational            0.889              2.981             41.337
 Rotational               0.889              2.981             31.808
 Vibrational            190.530             46.361             52.461
 Vibration     1          0.593              1.986              6.784
 Vibration     2          0.593              1.985              6.091
 Vibration     3          0.594              1.981              5.319
 Vibration     4          0.597              1.974              4.467
 Vibration     5          0.599              1.964              3.963
 Vibration     6          0.605              1.947              3.397
 Vibration     7          0.611              1.926              2.993
 Vibration     8          0.641              1.829              2.064
 Vibration     9          0.647              1.811              1.963
 Vibration    10          0.660              1.771              1.767
 Vibration    11          0.662              1.765              1.740
 Vibration    12          0.675              1.724              1.581
 Vibration    13          0.689              1.685              1.451
 Vibration    14          0.692              1.676              1.423
 Vibration    15          0.740              1.540              1.092
 Vibration    16          0.800              1.384              0.828
 Vibration    17          0.843              1.279              0.691
 Vibration    18          0.906              1.138              0.543
 Vibration    19          0.923              1.103              0.510

 Optimization completed.
    -- Stationary point found.
 Normal termination of Gaussian 16 at Thu Feb  3 10:53:36 2022.

 ----------------------------------------------------------------------
 # M062X/def2tzvp int=(grid=ultrafine) pop=nbo7 polar prop=efg volume g
 uess=read geom=check
 ----------------------------------------------------------------------

 -------
 Ac1.xyz
 -------
 Structure from the checkpoint file:  "Ac1_clust-3.chk"
 Charge =  0 Multiplicity = 1

 SCF Done:  E(RM062X) =  -543.542662310     A.U. after   11 cycles

  Exact polarizability:     138.625      -4.975     124.081       1.164       1.661     112.075
 Approx polarizability:     148.746      -0.952     141.994       4.898       3.586     145.792

 Summary of Natural Population Analysis:

                                     Natural Population
             Natural    ---------------------------------------------
  Atom No    Charge        Core      Valence    Rydberg      Total
 --------------------------------------------------------------------
    O  1   -0.70280      2.00000     6.68041    0.02239     8.70280
    C  2    0.79586      1.99999     3.16589    0.03826     5.20414
    C  3   -0.50638      1.99999     4.49322    0.01317     6.50638
    C  4   -0.39477      1.99999     4.38350    0.01128     6.39477
    C  5   -0.40173      1.99999     4.39019    0.01154     6.40173
    C  6   -0.38712      1.99999     4.37631    0.01082     6.38712
    C  7   -0.40000      1.99999     4.38870    0.01131     6.40000
    C  8   -0.39974      1.99999     4.38836    0.01139     6.39974
    C  9   -0.38818      1.99999     4.37705    0.01114     6.38818
    C 10   -0.39837      1.99999     4.38795    0.01043     6.39837
    C 11   -0.60027      1.99999     4.59176    0.00851     6.60027
    O 12   -0.58967      2.00000     6.56315    0.02653     8.58967
    H 13    0.49546      0.00000     0.50099    0.00355     0.50454
    H 14    0.23657      0.00000     0.76213    0.00129     0.76343
    H 15    0.22898      0.00000     0.76954    0.00148     0.77102
    H 16    0.20783      0.00000     0.79051    0.00166     0.79217
    H 17    0.21327      0.00000     0.78479    0.00195     0.78673
    H 18    0.19793      0.00000     0.80007    0.00201     0.80207
    H 19    0.20652      0.00000     0.79192    0.00156     0.79348
    H 20    0.20187      0.00000     0.79647    0.00166     0.79813
    H 21    0.19958      0.00000     0.79876    0.00165     0.80042
    H 22    0.20316      0.00000     0.79521    0.00163     0.79684
    H 23    0.19404      0.00000     0.80413    0.00183     0.80596
    H 24    0.20056      0.00000     0.79774    0.00169     0.79944
    H 25    0.19824      0.00000     0.79974    0.00203     0.80176
    H 26    0.19777      0.00000     0.80048    0.00174     0.80223
    H 27    0.19224      0.00000     0.80579    0.00198     0.80776
    H 28    0.19428      0.00000     0.80402    0.00170     0.80572
    H 29    0.19734      0.00000     0.80090    0.00175     0.80266
    H 30    0.20052      0.00000     0.79821    0.00127     0.79948
    H 31    0.20783      0.00000     0.79120    0.00098     0.79217
    H 32    0.19918      0.00000     0.79951    0.00131     0.80082
 ====================================================================
 * Total *  0.00000     23.99992    71.77859    0.22149    96.00000

 1\1\GINC-NOTCH075\SP\RM062X\def2TZVP\C10H20O2\U6032257\03-Feb-2022\0\\
 # M062X/def2tzvp int=(grid=ultrafine) pop=nbo7 polar prop=efg volume g
 uess=read geom=check\\Ac1.xyz\\0,1\O,0,4.458202588,-0.5381967015,-2.15
 61000791\C,0,4.6990895305,-0.6270348237,-0.8183301103\C,0,3.4247162935
 ,-0.5384192069,-0.0096703858\C,0,2.364146698,-1.5532312006,-0.46479731
 81\C,0,2.8201933093,-3.0058250486,-0.2884531625\C,0,1.8642736065,-4.03
 95301264,-0.9026082857\C,0,1.6165261238,-3.8663898133,-2.4097608528\C,
 0,2.8938231102,-3.8835504717,-3.2577305895\C,0,2.6498059126,-3.6961649

 Normal termination of Gaussian 16 at Thu Feb  3 10:57:18 2022.
 Gaussian 16:  ES64L-G16RevC.01  3-Jul-2019

 --------------------------------------------------------------------
 # M062X/def2tzvp int=(grid=ultrafine) nmr=giao guess=read geom=check
 --------------------------------------------------------------------

 -------
 Ac1.xyz
 -------
 Structure from the checkpoint file:  "Ac1_clust-3.chk"
 Charge =  0 Multiplicity = 1

                         Standard orientation:
 ---------------------------------------------------------------------
 Center     Atomic      Atomic             Coordinates (Angstroms)
 Number     Number       Type             X           Y           Z
 ---------------------------------------------------------------------
      1          8           0       -1.225135   -1.875855   -0.022084
      2          6           0       -2.453995   -1.305851   -0.165425
      3          6           0       -2.749440   -0.318992    0.941205
      4          6           0       -1.646738    0.739765    1.098923
      5          6           0       -1.482075    1.613871   -0.149247
      6          6           0       -0.269986    2.555984   -0.096541
      7          6           0        1.082190    1.849670    0.092157
      8          6           0        1.387601    0.792043   -0.975076
      9          6           0        2.730188    0.075625   -0.780084
     10          6           0        2.779467   -0.822349    0.462182
     11          6           0        4.082317   -1.617293    0.568613
     12          8           0       -3.187428   -1.589040   -1.085383
     13          1           0       -1.125740   -2.483069   -0.774339
     14          1           0       -2.854446   -0.887673    1.873007
     15          1           0       -3.716256    0.135280    0.712204
     16          1           0       -1.879980    1.370817    1.964814
     17          1           0       -0.709995    0.224707    1.327914
     18          1           0       -1.402360    0.971361   -1.034493
     19          1           0       -2.394261    2.205953   -0.295623
     20          1           0       -0.243704    3.140564   -1.025246
     21          1           0       -0.409525    3.280002    0.717083
     22          1           0        1.879456    2.604516    0.085407
     23          1           0        1.116827    1.391091    1.086716
     24          1           0        1.368062    1.271401   -1.963086
     25          1           0        0.593418    0.035790   -0.984191
     26          1           0        2.936486   -0.540659   -1.665480
     27          1           0        3.542445    0.814543   -0.728989
     28          1           0        2.653251   -0.214781    1.366417
     29          1           0        1.923362   -1.510379    0.438569
     30          1           0        4.948812   -0.948389    0.619940
     31          1           0        4.096865   -2.249786    1.461911
     32          1           0        4.220610   -2.266977   -0.303048
 ---------------------------------------------------------------------

 SCF Done:  E(RM062X) =  -543.542662310     A.U. after    1 cycles

      1  O    Isotropic =   103.0324   Anisotropy =   230.1148

      2  C    Isotropic =    -8.5071   Anisotropy =   127.3030

      3  C    Isotropic =   146.8396   Anisotropy =    29.6568

      4  C    Isotropic =   161.7021   Anisotropy =    17.0576

      5  C    Isotropic =   158.9527   Anisotropy =    25.1823

      6  C    Isotropic =   157.1428   Anisotropy =    11.3300

      7  C    Isotropic =   159.5296   Anisotropy =    22.1739

      8  C    Isotropic =   156.9517   Anisotropy =    22.7497

      9  C    Isotropic =   150.6269   Anisotropy =    27.5265

     10  C    Isotropic =   160.9817   Anisotropy =    15.9607

     11  C    Isotropic =   170.1977   Anisotropy =    28.6010

     12  O    Isotropic =  -184.1921   Anisotropy =   633.4912

     13  H    Isotropic =    25.8186   Anisotropy =     9.5987

     14  H    Isotropic =    29.4219   Anisotropy =     8.2758

     15  H    Isotropic =    29.7435   Anisotropy =     7.2757

     16  H    Isotropic =    30.8029   Anisotropy =     8.7756

     17  H    Isotropic =    29.8566   Anisotropy =     6.2156

     18  H    Isotropic =    30.6180   Anisotropy =     3.8355

     19  H    Isotropic =    30.6383   Anisotropy =     9.2757

     20  H    Isotropic =    30.4859   Anisotropy =     9.6509

     21  H    Isotropic =    30.4855   Anisotropy =     9.6099

     22  H    Isotropic =    30.8719   Anisotropy =     8.8054

     23  H    Isotropic =    30.2234   Anisotropy =     4.3643

     24  H    Isotropic =    30.8242   Anisotropy =     8.0437

     25  H    Isotropic =    30.4515   Anisotropy =     7.5395

     26  H    Isotropic =    30.5197   Anisotropy =     7.6456

     27  H    Isotropic =    30.7718   Anisotropy =     6.7941

     28  H    Isotropic =    30.3052   Anisotropy =     5.6175

     29  H    Isotropic =    30.8303   Anisotropy =     7.7519

     30  H    Isotropic =    31.0969   Anisotropy =     9.2261

     31  H    Isotropic =    30.7463   Anisotropy =    10.7474

     32  H    Isotropic =    31.0910   Anisotropy =     8.8964

 The electronic state is 1-A.
 Alpha  occ. eigenvalues --  -19.67689 -19.62222 -10.68028 -10.55517 -10.54320
 Alpha  occ. eigenvalues --  -10.53387 -10.53174 -10.52783 -10.52739 -10.52683
 Alpha  occ. eigenvalues --  -10.52621 -10.52136  -1.23605  -1.14090  -0.92317
 Alpha  occ. eigenvalues --   -0.90084  -0.86959  -0.82617  -0.78046  -0.73427
 Alpha  occ. eigenvalues --   -0.70395  -0.68431  -0.66065  -0.63250  -0.58327
 Alpha  occ. eigenvalues --   -0.56996  -0.55297  -0.54063  -0.53429  -0.52304
 Alpha  occ. eigenvalues --   -0.49954  -0.49351  -0.48186  -0.47445  -0.47095
 Alpha  occ. eigenvalues --   -0.45155  -0.43993  -0.42899  -0.41775  -0.41603
 Alpha  occ. eigenvalues --   -0.40420  -0.39397  -0.38943  -0.38168  -0.37319
 Alpha  occ. eigenvalues --   -0.36546  -0.36429  -0.35517
 Alpha virt. eigenvalues --    0.04059   0.05025   0.07223   0.07463   0.08025
 Alpha virt. eigenvalues --    0.09295   0.09992   0.11196   0.11643   0.12182
 Alpha virt. eigenvalues --    0.13068   0.13929   0.14636   0.14975   0.15658

 Mulliken charges:
               1
     1  O   -0.407077
     2  C    0.306962
     3  C   -0.275414
     4  C   -0.311866
     5  C   -0.329715
     6  C   -0.269596
     7  C   -0.332889
     8  C   -0.286665
     9  C   -0.267034
    10  C   -0.266436
    11  C   -0.424484
    12  O   -0.322754
    13  H    0.338007
    14  H    0.165745
    15  H    0.165097
    16  H    0.153205
    17  H    0.175330
    18  H    0.178294
    19  H    0.151644
    20  H    0.151375
    21  H    0.148577
    22  H    0.150133
    23  H    0.159279
    24  H    0.150532
    25  H    0.137895
    26  H    0.137984
    27  H    0.141234
    28  H    0.131498
    29  H    0.137500
    30  H    0.136468
    31  H    0.141452
    32  H    0.135718
 Sum of Mulliken charges =  -0.00000

 Dipole moment (field-independent basis, Debye):
    X=              1.1768    Y=              0.6517    Z=              1.2962  Tot=              1.8680
 Quadrupole moment (field-independent basis, Debye-Ang):
   XX=            -85.5653   YY=            -75.4594   ZZ=            -77.8304
   XY=             -4.1277   XZ=             -7.2874   YZ=             -0.1084

 1\1\GINC-NOTCH075\SP\RM062X\def2TZVP\C10H20O2\U6032257\03-Feb-2022\0\\
 # M062X/def2tzvp int=(grid=ultrafine) nmr=giao guess=read geom=check\\
 Ac1.xyz\\0,1\O,0,4.458202588,-0.5381967015,-2.1561000791\C,0,4.6990895
 305,-0.6270348237,-0.8183301103\C,0,3.4247162935,-0.5384192069,-0.0096
 703858\C,0,2.364146698,-1.5532312006,-0.4647973181\C,0,2.8201933093,-3
 .0058250486,-0.2884531625\C,0,1.8642736065,-4.0395301264,-0.9026082857
 \C,0,1.6165261238,-3.8663898133,-2.4097608528\C,0,2.8938231102,-3.8835
 504717,-3.2577305895\C,0,2.6498059126,-3.6961649799,-4.7607806037\C,0,

 Normal termination of Gaussian 16 at Thu Feb  3 10:58:49 2022.
