 Gaussian 16, Revision C.01,

 ----------------------------------------------------------------------
 # B3LYP/6-31G(d,p) empiricaldispersion=GD3BJ int=(grid=ultrafine) opt
 freq=noraman
 ----------------------------------------------------------------------

 -------
 Ac1.xyz
 -------
 Symbolic Z-matrix:
 Charge =  0 Multiplicity = 1

 SCF Done:  E(RB3LYP) =  -543.663216762     A.U. after   13 cycles
 SCF Done:  E(RB3LYP) =  -543.665601028     A.U. after   12 cycles
 SCF Done:  E(RB3LYP) =  -543.665568564     A.U. after   11 cycles
 SCF Done:  E(RB3LYP) =  -543.665859386     A.U. after   10 cycles
 SCF Done:  E(RB3LYP) =  -543.665864203     A.U. after    9 cycles
 SCF Done:  E(RB3LYP) =  -543.665868683     A.U. after    9 cycles
 SCF Done:  E(RB3LYP) =  -543.665876010     A.U. after    9 cycles
 SCF Done:  E(RB3LYP) =  -543.665876969     A.U. after    7 cycles
 SCF Done:  E(RB3LYP) =  -543.665877500     A.U. after    9 cycles
 SCF Done:  E(RB3LYP) =  -543.665877630     A.U. after    9 cycles
 SCF Done:  E(RB3LYP) =  -543.665877638     A.U. after    7 cycles
 Optimization completed.
    -- Stationary point found.
 Normal termination of Gaussian 16 at Thu Feb  3 10:12:16 2022.

 ----------------------------------------------------------------------
 #N Geom=AllCheck Guess=TCheck SCRF=Check GenChk RB3LYP/6-31G(d,p) Freq
 ----------------------------------------------------------------------

 Structure from the checkpoint file:  "Ac1_clust-35.chk"
 -------
 Ac1.xyz
 -------
 Charge =  0 Multiplicity = 1

 SCF Done:  E(RB3LYP) =  -543.665877638     A.U. after    1 cycles

                      1                      2                      3
                      A                      A                      A
 Frequencies --     15.5192                29.4962                38.6990
 Red. masses --      4.3463                 4.8871                 6.3616
 Frc consts  --      0.0006                 0.0025                 0.0056
 IR Inten    --      0.1786                 0.2379                 1.1536

                      4                      5                      6
                      A                      A                      A
 Frequencies --     53.4174                90.5781                99.3384
 Red. masses --      3.6132                 1.6884                 2.0560
 Frc consts  --      0.0061                 0.0082                 0.0120
 IR Inten    --      0.2446                 0.0478                 0.0339

                      7                      8                      9
                      A                      A                      A
 Frequencies --    133.0725               155.5181               186.5195
 Red. masses --      2.2288                 2.7722                 2.8973
 Frc consts  --      0.0233                 0.0395                 0.0594
 IR Inten    --      0.0454                 0.0684                 1.6206

                     10                     11                     12
                      A                      A                      A
 Frequencies --    229.2446               247.9444               259.5895
 Red. masses --      2.1962                 1.4888                 1.6639
 Frc consts  --      0.0680                 0.0539                 0.0661
 IR Inten    --      0.7820                 0.3714                 0.1075

                     13                     14                     15
                      A                      A                      A
 Frequencies --    295.3730               326.2036               401.5430
 Red. masses --      2.3992                 2.4939                 2.7547
 Frc consts  --      0.1233                 0.1564                 0.2617
 IR Inten    --      0.8066                 0.4644                 0.0266

                     16                     17                     18
                      A                      A                      A
 Frequencies --    427.3287               490.9572               498.1987
 Red. masses --      2.4664                 2.0583                 3.0273
 Frc consts  --      0.2654                 0.2923                 0.4427
 IR Inten    --      3.9371                 0.2716                20.9426

                     19                     20                     21
                      A                      A                      A
 Frequencies --    526.2055               622.5380               682.2199
 Red. masses --      1.7901                 3.4333                 1.3664
 Frc consts  --      0.2920                 0.7840                 0.3747
 IR Inten    --     18.1947                17.3232                93.5129

                     22                     23                     24
                      A                      A                      A
 Frequencies --    731.2427               752.9843               777.5279
 Red. masses --      1.1768                 1.1525                 1.6294
 Frc consts  --      0.3708                 0.3850                 0.5804
 IR Inten    --     13.6391                 4.6412                11.8711

                     25                     26                     27
                      A                      A                      A
 Frequencies --    798.5853               845.8292               855.8257
 Red. masses --      1.8058                 2.2025                 1.6134
 Frc consts  --      0.6785                 0.9284                 0.6962
 IR Inten    --      0.7650                 5.1699                 1.7467

                     28                     29                     30
                      A                      A                      A
 Frequencies --    888.7139               911.9517               933.7053
 Red. masses --      1.8356                 1.8961                 1.9443
 Frc consts  --      0.8542                 0.9291                 0.9987
 IR Inten    --      3.3358                 3.6998                 4.0277

                     31                     32                     33
                      A                      A                      A
 Frequencies --    959.7844               983.2489              1016.7836
 Red. masses --      1.7937                 1.7351                 2.1986
 Frc consts  --      0.9735                 0.9883                 1.3392
 IR Inten    --      0.6021                 0.5574                 1.9687

                     34                     35                     36
                      A                      A                      A
 Frequencies --   1056.6539              1061.5677              1077.5494
 Red. masses --      2.5139                 1.4252                 2.1660
 Frc consts  --      1.6537                 0.9463                 1.4818
 IR Inten    --      0.4278                 0.3696                16.0538

                     37                     38                     39
                      A                      A                      A
 Frequencies --   1097.6638              1106.0915              1128.0944
 Red. masses --      2.0936                 2.1503                 1.7958
 Frc consts  --      1.4862                 1.5500                 1.3465
 IR Inten    --      1.9469                 2.0164                87.5998

                     40                     41                     42
                      A                      A                      A
 Frequencies --   1141.2099              1170.9595              1206.1451
 Red. masses --      1.7214                 2.1542                 1.6445
 Frc consts  --      1.3209                 1.7403                 1.4095
 IR Inten    --      0.8673               122.5569                43.3905

                     43                     44                     45
                      A                      A                      A
 Frequencies --   1213.0126              1245.4476              1282.1173
 Red. masses --      1.3666                 1.3477                 1.3335
 Frc consts  --      1.1848                 1.2317                 1.2915
 IR Inten    --     30.2013                 1.2828                 3.1407

                     46                     47                     48
                      A                      A                      A
 Frequencies --   1288.8583              1310.8856              1322.2646
 Red. masses --      1.2956                 1.3329                 1.2882
 Frc consts  --      1.2680                 1.3495                 1.3270
 IR Inten    --      0.4597                 0.9027                 2.0393

                     49                     50                     51
                      A                      A                      A
 Frequencies --   1331.7585              1340.1111              1344.4493
 Red. masses --      1.2866                 1.1169                 1.1333
 Frc consts  --      1.3444                 1.1819                 1.2069
 IR Inten    --     10.7448                 4.7319                 0.3664

                     52                     53                     54
                      A                      A                      A
 Frequencies --   1348.2292              1383.7562              1394.8640
 Red. masses --      1.1787                 1.3697                 1.4636
 Frc consts  --      1.2623                 1.5453                 1.6778
 IR Inten    --      2.2635                11.7302                 2.0464

                     55                     56                     57
                      A                      A                      A
 Frequencies --   1399.2505              1412.7468              1418.6655
 Red. masses --      1.4507                 1.5806                 1.5668
 Frc consts  --      1.6735                 1.8586                 1.8579
 IR Inten    --      5.6011                 2.9628                 0.4825

                     58                     59                     60
                      A                      A                      A
 Frequencies --   1427.0990              1429.3156              1476.0888
 Red. masses --      1.2459                 1.9776                 1.0950
 Frc consts  --      1.4950                 2.3803                 1.4057
 IR Inten    --      0.3003                55.1635                13.6579

                     61                     62                     63
                      A                      A                      A
 Frequencies --   1493.7157              1495.4189              1503.8877
 Red. masses --      1.0887                 1.0796                 1.0730
 Frc consts  --      1.4312                 1.4225                 1.4299
 IR Inten    --      6.9329                 1.2939                 1.9107

                     64                     65                     66
                      A                      A                      A
 Frequencies --   1505.2450              1508.4000              1509.8693
 Red. masses --      1.0811                 1.0799                 1.0784
 Frc consts  --      1.4432                 1.4477                 1.4485
 IR Inten    --      2.8542                 1.6362                 0.7285

                     67                     68                     69
                      A                      A                      A
 Frequencies --   1514.3143              1523.7464              1525.2812
 Red. masses --      1.0405                 1.0876                 1.0909
 Frc consts  --      1.4058                 1.4878                 1.4953
 IR Inten    --      6.1635                 6.2502                 1.2944

                     70                     71                     72
                      A                      A                      A
 Frequencies --   1841.3744              3012.4091              3017.4939
 Red. masses --      9.5907                 1.0601                 1.0612
 Frc consts  --     19.1595                 5.6679                 5.6931
 IR Inten    --    223.4854                13.3264                 9.6367

                     73                     74                     75
                      A                      A                      A
 Frequencies --   3019.5522              3026.8930              3028.8668
 Red. masses --      1.0671                 1.0632                 1.0657
 Frc consts  --      5.7325                 5.7394                 5.7601
 IR Inten    --     11.5361                16.3766                31.1683

                     76                     77                     78
                      A                      A                      A
 Frequencies --   3037.4885              3038.4244              3041.7496
 Red. masses --      1.0366                 1.0651                 1.0654
 Frc consts  --      5.6347                 5.7934                 5.8079
 IR Inten    --     42.8845                44.8013                32.4455

                     79                     80                     81
                      A                      A                      A
 Frequencies --   3044.6604              3053.1130              3054.1742
 Red. masses --      1.0981                 1.0687                 1.0931
 Frc consts  --      5.9973                 5.8693                 6.0076
 IR Inten    --     12.7675                17.1825                34.5350

                     82                     83                     84
                      A                      A                      A
 Frequencies --   3064.6730              3070.4315              3074.9011
 Red. masses --      1.0993                 1.0993                 1.1004
 Frc consts  --      6.0835                 6.1060                 6.1299
 IR Inten    --     48.4511                34.9372                20.6164

                     85                     86                     87
                      A                      A                      A
 Frequencies --   3088.5598              3097.0949              3107.1517
 Red. masses --      1.0984                 1.1011                 1.1029
 Frc consts  --      6.1734                 6.2227                 6.2734
 IR Inten    --     28.2965                58.0604                62.1753

                     88                     89                     90
                      A                      A                      A
 Frequencies --   3109.2169              3111.9442              3750.3456
 Red. masses --      1.0947                 1.1019                 1.0640
 Frc consts  --      6.2352                 6.2872                 8.8175
 IR Inten    --     29.1219                41.6674                46.3405

 - Thermochemistry -
 -------------------
 Temperature   298.150 Kelvin.  Pressure   1.00000 Atm.
 Atom     1 has atomic number  8 and mass  15.99491

 Molecular mass:   172.14633 amu.
 Principal axes and moments of inertia in atomic units:
                           1         2         3
     Eigenvalues --   994.636616400.530676638.37859
           X            1.00000   0.00057   0.00241
           Y           -0.00054   0.99992  -0.01292
           Z           -0.00242   0.01292   0.99991
 This molecule is an asymmetric top.
 Rotational symmetry number  1.
 Warning -- assumption of classical behavior for rotation
           may cause significant error
 Rotational temperatures (Kelvin)      0.08708     0.01353     0.01305
 Rotational constants (GHZ):           1.81447     0.28197     0.27186
 Zero-point vibrational energy     765316.6 (Joules/Mol)
                                  182.91505 (Kcal/Mol)
 Warning -- explicit consideration of  19 degrees of freedom as
           vibrations may cause significant error
 Vibrational temperatures:     22.33    42.44    55.68    76.86   130.32
          (Kelvin)            142.93   191.46   223.76   268.36   329.83
                              356.74   373.49   424.98   469.33   577.73
                              614.83   706.38   716.80   757.09   895.69
                              981.56  1052.10  1083.38  1118.69  1148.99
                             1216.96  1231.34  1278.66  1312.10  1343.39
                             1380.92  1414.68  1462.92  1520.29  1527.36
                             1550.35  1579.29  1591.42  1623.08  1641.95
                             1684.75  1735.37  1745.25  1791.92  1844.68
                             1854.38  1886.07  1902.44  1916.10  1928.12
                             1934.36  1939.80  1990.92  2006.90  2013.21
                             2032.63  2041.14  2053.28  2056.47  2123.76
                             2149.12  2151.57  2163.76  2165.71  2170.25
                             2172.37  2178.76  2192.33  2194.54  2649.33
                             4334.18  4341.50  4344.46  4355.02  4357.86
                             4370.27  4371.61  4376.40  4380.59  4392.75
                             4394.28  4409.38  4417.67  4424.10  4443.75
                             4456.03  4470.50  4473.47  4477.39  5395.91

 Zero-point correction=                           0.291494 (Hartree/Particle)
 Thermal correction to Energy=                    0.306179
 Thermal correction to Enthalpy=                  0.307123
 Thermal correction to Gibbs Free Energy=         0.246826
 Sum of electronic and zero-point Energies=           -543.374384
 Sum of electronic and thermal Energies=              -543.359699
 Sum of electronic and thermal Enthalpies=            -543.358755
 Sum of electronic and thermal Free Energies=         -543.419052

                     E (Thermal)             CV                S
                      KCal/Mol        Cal/Mol-Kelvin    Cal/Mol-Kelvin
 Total                  192.130             52.523            126.907
 Electronic               0.000              0.000              0.000
 Translational            0.889              2.981             41.337
 Rotational               0.889              2.981             32.113
 Vibrational            190.353             46.562             53.456
 Vibration     1          0.593              1.986              7.138
 Vibration     2          0.593              1.984              5.863
 Vibration     3          0.594              1.981              5.325
 Vibration     4          0.596              1.976              4.687
 Vibration     5          0.602              1.956              3.648
 Vibration     6          0.604              1.950              3.467
 Vibration     7          0.613              1.920              2.901
 Vibration     8          0.620              1.897              2.604
 Vibration     9          0.632              1.858              2.262
 Vibration    10          0.652              1.796              1.885
 Vibration    11          0.662              1.766              1.745
 Vibration    12          0.668              1.747              1.665
 Vibration    13          0.690              1.682              1.443
 Vibration    14          0.710              1.623              1.279
 Vibration    15          0.767              1.467              0.957
 Vibration    16          0.789              1.411              0.867
 Vibration    17          0.847              1.270              0.681
 Vibration    18          0.854              1.254              0.663
 Vibration    19          0.881              1.192              0.596

 Optimization completed.
    -- Stationary point found.
 Normal termination of Gaussian 16 at Thu Feb  3 10:13:44 2022.

 ----------------------------------------------------------------------
 # M062X/def2tzvp int=(grid=ultrafine) pop=nbo7 polar prop=efg volume g
 uess=read geom=check
 ----------------------------------------------------------------------

 -------
 Ac1.xyz
 -------
 Structure from the checkpoint file:  "Ac1_clust-35.chk"
 Charge =  0 Multiplicity = 1

 SCF Done:  E(RM062X) =  -543.540426441     A.U. after   11 cycles

  Exact polarizability:     143.811      -4.076     118.224       0.345      -0.563     113.806
 Approx polarizability:     142.496      -3.809     141.495       0.874      -1.442     151.318

 Summary of Natural Population Analysis:

                                     Natural Population
             Natural    ---------------------------------------------
  Atom No    Charge        Core      Valence    Rydberg      Total
 --------------------------------------------------------------------
    O  1   -0.68733      2.00000     6.66537    0.02196     8.68733
    C  2    0.79619      1.99999     3.16680    0.03702     5.20381
    C  3   -0.51839      1.99999     4.50533    0.01307     6.51839
    C  4   -0.38896      1.99999     4.37690    0.01206     6.38896
    C  5   -0.39863      1.99999     4.38735    0.01129     6.39863
    C  6   -0.39836      1.99999     4.38730    0.01107     6.39836
    C  7   -0.39697      1.99999     4.38537    0.01161     6.39697
    C  8   -0.39096      1.99999     4.38030    0.01067     6.39096
    C  9   -0.38809      1.99999     4.37669    0.01140     6.38809
    C 10   -0.39868      1.99999     4.38841    0.01027     6.39868
    C 11   -0.60063      1.99999     4.59202    0.00862     6.60063
    O 12   -0.60182      2.00000     6.57541    0.02642     8.60182
    H 13    0.49256      0.00000     0.50404    0.00340     0.50744
    H 14    0.23168      0.00000     0.76686    0.00146     0.76832
    H 15    0.24248      0.00000     0.75636    0.00116     0.75752
    H 16    0.22082      0.00000     0.77763    0.00154     0.77918
    H 17    0.20231      0.00000     0.79609    0.00160     0.79769
    H 18    0.21112      0.00000     0.78692    0.00197     0.78888
    H 19    0.20275      0.00000     0.79563    0.00162     0.79725
    H 20    0.19592      0.00000     0.80209    0.00199     0.80408
    H 21    0.19025      0.00000     0.80785    0.00190     0.80975
    H 22    0.20347      0.00000     0.79494    0.00159     0.79653
    H 23    0.19404      0.00000     0.80393    0.00203     0.80596
    H 24    0.20643      0.00000     0.79217    0.00140     0.79357
    H 25    0.19314      0.00000     0.80494    0.00191     0.80686
    H 26    0.19796      0.00000     0.80027    0.00177     0.80204
    H 27    0.19173      0.00000     0.80631    0.00196     0.80827
    H 28    0.19367      0.00000     0.80459    0.00174     0.80633
    H 29    0.19354      0.00000     0.80459    0.00187     0.80646
    H 30    0.20024      0.00000     0.79846    0.00129     0.79976
    H 31    0.20089      0.00000     0.79782    0.00128     0.79911
    H 32    0.20762      0.00000     0.79140    0.00098     0.79238
 ====================================================================
 * Total *  0.00000     23.99992    71.78015    0.21993    96.00000

 1\1\GINC-NOTCH075\SP\RM062X\def2TZVP\C10H20O2\U6032257\03-Feb-2022\0\\
 # M062X/def2tzvp int=(grid=ultrafine) pop=nbo7 polar prop=efg volume g
 uess=read geom=check\\Ac1.xyz\\0,1\O,0,5.6336615395,0.3838529407,-0.17
 65447907\C,0,4.7236678925,-0.5391304226,0.2239647183\C,0,3.3727019361,
 -0.301462703,-0.4120172335\C,0,2.4261843748,-1.4975806448,-0.279560107
 3\C,0,2.8705243,-2.7492498399,-1.0490881859\C,0,2.945783393,-2.5680966
 594,-2.5681975551\C,0,3.3278510485,-3.8621514092,-3.2978301513\C,0,3.4
 104778274,-3.7401682899,-4.8324493241\C,0,2.1186657653,-4.0804200336,-

 Normal termination of Gaussian 16 at Thu Feb  3 10:17:00 2022.
 Gaussian 16:  ES64L-G16RevC.01  3-Jul-2019

 --------------------------------------------------------------------
 # M062X/def2tzvp int=(grid=ultrafine) nmr=giao guess=read geom=check
 --------------------------------------------------------------------

 -------
 Ac1.xyz
 -------
 Structure from the checkpoint file:  "Ac1_clust-35.chk"
 Charge =  0 Multiplicity = 1

                         Standard orientation:
 ---------------------------------------------------------------------
 Center     Atomic      Atomic             Coordinates (Angstroms)
 Number     Number       Type             X           Y           Z
 ---------------------------------------------------------------------
      1          8           0        4.097688   -0.583374   -1.432689
      2          6           0        3.608882   -0.042173   -0.288764
      3          6           0        2.596107    1.043414   -0.574868
      4          6           0        1.765198    1.429916    0.651650
      5          6           0        0.835502    0.321866    1.165633
      6          6           0       -0.245596   -0.112785    0.171409
      7          6           0       -1.190182   -1.171909    0.753588
      8          6           0       -2.305057   -1.641011   -0.202320
      9          6           0       -3.630493   -0.872221   -0.095645
     10          6           0       -3.560814    0.625897   -0.409380
     11          6           0       -4.938731    1.291894   -0.398446
     12          8           0        3.984179   -0.399182    0.806903
     13          1           0        4.756601   -1.242337   -1.155508
     14          1           0        1.973176    0.721661   -1.414733
     15          1           0        3.163104    1.908480   -0.942885
     16          1           0        2.449936    1.722658    1.453832
     17          1           0        1.171229    2.316280    0.397118
     18          1           0        1.439264   -0.544117    1.460507
     19          1           0        0.348902    0.679817    2.082129
     20          1           0       -0.813275    0.766435   -0.155815
     21          1           0        0.217540   -0.527048   -0.734038
     22          1           0       -0.581692   -2.034987    1.052065
     23          1           0       -1.640574   -0.791398    1.681202
     24          1           0       -2.519419   -2.698936   -0.009301
     25          1           0       -1.938200   -1.594306   -1.237210
     26          1           0       -4.359164   -1.338075   -0.773122
     27          1           0       -4.036152   -1.002390    0.917759
     28          1           0       -2.913591    1.127207    0.319931
     29          1           0       -3.088252    0.771152   -1.390203
     30          1           0       -5.600730    0.840488   -1.145888
     31          1           0       -5.421806    1.179914    0.578779
     32          1           0       -4.870721    2.362613   -0.615484
 ---------------------------------------------------------------------

 SCF Done:  E(RM062X) =  -543.540426441     A.U. after    1 cycles

      1  O    Isotropic =   100.9787   Anisotropy =   244.4755

      2  C    Isotropic =    -8.8630   Anisotropy =   124.0077

      3  C    Isotropic =   154.0884   Anisotropy =    39.7065

      4  C    Isotropic =   160.2340   Anisotropy =    15.7868

      5  C    Isotropic =   156.4120   Anisotropy =    26.9182

      6  C    Isotropic =   152.1024   Anisotropy =    33.4242

      7  C    Isotropic =   152.1352   Anisotropy =    30.1360

      8  C    Isotropic =   154.7810   Anisotropy =    14.9067

      9  C    Isotropic =   147.6537   Anisotropy =    28.0095

     10  C    Isotropic =   159.0691   Anisotropy =    13.4241

     11  C    Isotropic =   169.6630   Anisotropy =    29.3861

     12  O    Isotropic =  -163.6668   Anisotropy =   658.9766

     13  H    Isotropic =    25.7221   Anisotropy =    11.6388

     14  H    Isotropic =    29.3074   Anisotropy =     4.3806

     15  H    Isotropic =    29.7124   Anisotropy =     8.5893

     16  H    Isotropic =    29.8215   Anisotropy =     9.1553

     17  H    Isotropic =    30.7281   Anisotropy =     8.1906

     18  H    Isotropic =    30.3722   Anisotropy =     6.4531

     19  H    Isotropic =    30.6655   Anisotropy =     6.9806

     20  H    Isotropic =    30.7583   Anisotropy =     8.8643

     21  H    Isotropic =    30.6981   Anisotropy =     6.3573

     22  H    Isotropic =    30.4299   Anisotropy =     7.0499

     23  H    Isotropic =    30.9132   Anisotropy =     4.3407

     24  H    Isotropic =    30.1369   Anisotropy =     9.2972

     25  H    Isotropic =    30.8717   Anisotropy =     5.8750

     26  H    Isotropic =    30.5328   Anisotropy =     7.9385

     27  H    Isotropic =    30.6861   Anisotropy =     6.4073

     28  H    Isotropic =    30.4105   Anisotropy =     7.7744

     29  H    Isotropic =    30.8677   Anisotropy =     5.8838

     30  H    Isotropic =    31.1377   Anisotropy =     9.1843

     31  H    Isotropic =    31.1126   Anisotropy =     8.8103

     32  H    Isotropic =    30.7390   Anisotropy =    10.5150

 The electronic state is 1-A.
 Alpha  occ. eigenvalues --  -19.67561 -19.62198 -10.68019 -10.55445 -10.53770
 Alpha  occ. eigenvalues --  -10.52874 -10.52787 -10.52755 -10.52728 -10.52716
 Alpha  occ. eigenvalues --  -10.52688 -10.52189  -1.23624  -1.14072  -0.91832
 Alpha  occ. eigenvalues --   -0.90023  -0.86676  -0.82825  -0.78396  -0.73632
 Alpha  occ. eigenvalues --   -0.70030  -0.67264  -0.64587  -0.64077  -0.58589
 Alpha  occ. eigenvalues --   -0.57317  -0.56340  -0.54671  -0.52761  -0.51282
 Alpha  occ. eigenvalues --   -0.49851  -0.49630  -0.48278  -0.46894  -0.46574
 Alpha  occ. eigenvalues --   -0.44744  -0.43560  -0.42835  -0.41869  -0.40704
 Alpha  occ. eigenvalues --   -0.40168  -0.39668  -0.38725  -0.38185  -0.37729
 Alpha  occ. eigenvalues --   -0.36431  -0.35861  -0.35744
 Alpha virt. eigenvalues --    0.04119   0.05858   0.06736   0.07584   0.08159
 Alpha virt. eigenvalues --    0.08464   0.09872   0.10717   0.11376   0.12748
 Alpha virt. eigenvalues --    0.13149   0.14036   0.14315   0.15181   0.15321

 Mulliken charges:
               1
     1  O   -0.409369
     2  C    0.355612
     3  C   -0.359495
     4  C   -0.260338
     5  C   -0.315866
     6  C   -0.331369
     7  C   -0.295925
     8  C   -0.259503
     9  C   -0.288474
    10  C   -0.273054
    11  C   -0.424666
    12  O   -0.337358
    13  H    0.334509
    14  H    0.183179
    15  H    0.176063
    16  H    0.165961
    17  H    0.151154
    18  H    0.184043
    19  H    0.144353
    20  H    0.153645
    21  H    0.145471
    22  H    0.149586
    23  H    0.151850
    24  H    0.142820
    25  H    0.147245
    26  H    0.136911
    27  H    0.145475
    28  H    0.131294
    29  H    0.141233
    30  H    0.137957
    31  H    0.136229
    32  H    0.140825
 Sum of Mulliken charges =  -0.00000

 Dipole moment (field-independent basis, Debye):
    X=             -0.5664    Y=              0.4291    Z=             -1.2713  Tot=              1.4564
 Quadrupole moment (field-independent basis, Debye-Ang):
   XX=            -79.3435   YY=            -74.3389   ZZ=            -80.6817
   XY=             -0.1726   XZ=             -6.3139   YZ=              1.2775

 1\1\GINC-NOTCH075\SP\RM062X\def2TZVP\C10H20O2\U6032257\03-Feb-2022\0\\
 # M062X/def2tzvp int=(grid=ultrafine) nmr=giao guess=read geom=check\\
 Ac1.xyz\\0,1\O,0,5.6336615395,0.3838529407,-0.1765447907\C,0,4.7236678
 925,-0.5391304226,0.2239647183\C,0,3.3727019361,-0.301462703,-0.412017
 2335\C,0,2.4261843748,-1.4975806448,-0.2795601073\C,0,2.8705243,-2.749
 2498399,-1.0490881859\C,0,2.945783393,-2.5680966594,-2.5681975551\C,0,
 3.3278510485,-3.8621514092,-3.2978301513\C,0,3.4104778274,-3.740168289
 9,-4.8324493241\C,0,2.1186657653,-4.0804200336,-5.5905052223\C,0,0.905

 Normal termination of Gaussian 16 at Thu Feb  3 10:18:21 2022.
