 Gaussian 16, Revision C.01,

 ----------------------------------------------------------------------
 # B3LYP/6-31G(d,p) empiricaldispersion=GD3BJ int=(grid=ultrafine) opt
 freq=noraman
 ----------------------------------------------------------------------

 -------
 Ac1.xyz
 -------
 Symbolic Z-matrix:
 Charge =  0 Multiplicity = 1

 SCF Done:  E(RB3LYP) =  -543.661760846     A.U. after   13 cycles
 SCF Done:  E(RB3LYP) =  -543.664097893     A.U. after   12 cycles
 SCF Done:  E(RB3LYP) =  -543.663604000     A.U. after   11 cycles
 SCF Done:  E(RB3LYP) =  -543.664241197     A.U. after   11 cycles
 SCF Done:  E(RB3LYP) =  -543.664401883     A.U. after   11 cycles
 SCF Done:  E(RB3LYP) =  -543.664424476     A.U. after    9 cycles
 SCF Done:  E(RB3LYP) =  -543.664428691     A.U. after    9 cycles
 SCF Done:  E(RB3LYP) =  -543.664431343     A.U. after    9 cycles
 SCF Done:  E(RB3LYP) =  -543.664432735     A.U. after   10 cycles
 SCF Done:  E(RB3LYP) =  -543.664434066     A.U. after    9 cycles
 SCF Done:  E(RB3LYP) =  -543.664434629     A.U. after    8 cycles
 SCF Done:  E(RB3LYP) =  -543.664435401     A.U. after    8 cycles
 SCF Done:  E(RB3LYP) =  -543.664435714     A.U. after    8 cycles
 SCF Done:  E(RB3LYP) =  -543.664435755     A.U. after    7 cycles
 Optimization completed.
    -- Stationary point found.
 Normal termination of Gaussian 16 at Thu Feb  3 09:15:11 2022.

 ----------------------------------------------------------------------
 #N Geom=AllCheck Guess=TCheck SCRF=Check GenChk RB3LYP/6-31G(d,p) Freq
 ----------------------------------------------------------------------

 Structure from the checkpoint file:  "Ac1_clust-29.chk"
 -------
 Ac1.xyz
 -------
 Charge =  0 Multiplicity = 1

 SCF Done:  E(RB3LYP) =  -543.664435755     A.U. after    1 cycles

                      1                      2                      3
                      A                      A                      A
 Frequencies --     17.7470                22.1452                30.2238
 Red. masses --      4.7747                 6.7588                 4.0390
 Frc consts  --      0.0009                 0.0020                 0.0022
 IR Inten    --      0.7220                 0.6061                 0.2976

                      4                      5                      6
                      A                      A                      A
 Frequencies --     64.4508                79.6346               101.0088
 Red. masses --      2.1942                 2.9297                 2.2523
 Frc consts  --      0.0054                 0.0109                 0.0135
 IR Inten    --      0.0573                 0.0273                 0.0010

                      7                      8                      9
                      A                      A                      A
 Frequencies --    122.1076               137.1749               190.4515
 Red. masses --      2.8207                 2.2600                 2.1669
 Frc consts  --      0.0248                 0.0251                 0.0463
 IR Inten    --      0.0165                 0.0103                 0.1186

                     10                     11                     12
                      A                      A                      A
 Frequencies --    224.4269               243.8668               252.4788
 Red. masses --      2.1605                 2.3445                 1.1605
 Frc consts  --      0.0641                 0.0821                 0.0436
 IR Inten    --      0.1285                 0.1729                 0.0051

                     13                     14                     15
                      A                      A                      A
 Frequencies --    301.0378               342.7091               396.6395
 Red. masses --      2.2463                 2.8314                 2.7551
 Frc consts  --      0.1199                 0.1959                 0.2554
 IR Inten    --      0.0396                 0.8307                 0.0327

                     16                     17                     18
                      A                      A                      A
 Frequencies --    425.2727               470.8656               475.1880
 Red. masses --      2.3896                 1.9608                 2.5289
 Frc consts  --      0.2546                 0.2561                 0.3365
 IR Inten    --      1.3813                 0.1166                 4.0067

                     19                     20                     21
                      A                      A                      A
 Frequencies --    564.8622               623.1898               707.4633
 Red. masses --      3.7081                 1.3897                 1.6311
 Frc consts  --      0.6971                 0.3180                 0.4810
 IR Inten    --     37.9966                60.4685                44.6955

                     22                     23                     24
                      A                      A                      A
 Frequencies --    745.8576               752.5809               784.9969
 Red. masses --      1.0844                 1.6969                 1.2436
 Frc consts  --      0.3554                 0.5663                 0.4515
 IR Inten    --      3.2449                31.3718                 0.3546

                     25                     26                     27
                      A                      A                      A
 Frequencies --    812.0322               825.7627               842.5123
 Red. masses --      2.2952                 2.2007                 2.1114
 Frc consts  --      0.8917                 0.8841                 0.8830
 IR Inten    --      1.2781                 1.6089                 2.9905

                     28                     29                     30
                      A                      A                      A
 Frequencies --    890.1070               910.3636               935.5673
 Red. masses --      1.8626                 1.5296                 1.6586
 Frc consts  --      0.8695                 0.7469                 0.8553
 IR Inten    --      0.9879                 5.2299                 7.2995

                     31                     32                     33
                      A                      A                      A
 Frequencies --    968.2587               983.0972              1018.1485
 Red. masses --      1.6992                 2.3701                 1.7627
 Frc consts  --      0.9386                 1.3496                 1.0766
 IR Inten    --      1.9327                 0.2983                 3.1234

                     34                     35                     36
                      A                      A                      A
 Frequencies --   1043.5410              1057.2010              1065.5763
 Red. masses --      2.4619                 1.7946                 2.2114
 Frc consts  --      1.5795                 1.1818                 1.4794
 IR Inten    --     13.5204                 6.8779                 4.1339

                     37                     38                     39
                      A                      A                      A
 Frequencies --   1091.6202              1100.9208              1127.9673
 Red. masses --      2.0216                 2.1405                 1.6946
 Frc consts  --      1.4194                 1.5285                 1.2703
 IR Inten    --     11.0833                37.4477                33.0360

                     40                     41                     42
                      A                      A                      A
 Frequencies --   1145.3650              1168.6409              1223.8662
 Red. masses --      1.6532                 1.8745                 1.5792
 Frc consts  --      1.2778                 1.5083                 1.3936
 IR Inten    --      1.5441                36.1385                85.8807

                     43                     44                     45
                      A                      A                      A
 Frequencies --   1227.7104              1247.2187              1269.5947
 Red. masses --      1.4971                 1.3515                 1.3078
 Frc consts  --      1.3295                 1.2387                 1.2420
 IR Inten    --     10.2945                12.6968                 0.2400

                     46                     47                     48
                      A                      A                      A
 Frequencies --   1284.4681              1312.5750              1328.6216
 Red. masses --      1.2748                 1.2759                 1.3289
 Frc consts  --      1.2392                 1.2952                 1.3822
 IR Inten    --      0.7025                 2.4537                 8.8907

                     49                     50                     51
                      A                      A                      A
 Frequencies --   1333.9976              1336.8472              1346.6460
 Red. masses --      1.2387                 1.1079                 1.1452
 Frc consts  --      1.2988                 1.1665                 1.2236
 IR Inten    --      6.8293                 0.0365                 1.5615

                     52                     53                     54
                      A                      A                      A
 Frequencies --   1365.2353              1379.3366              1387.4707
 Red. masses --      1.2677                 1.6199                 1.4845
 Frc consts  --      1.3921                 1.8158                 1.6838
 IR Inten    --      4.5373                 4.6322                12.7035

                     55                     56                     57
                      A                      A                      A
 Frequencies --   1389.4575              1401.8007              1419.4807
 Red. masses --      1.4489                 1.5076                 1.5848
 Frc consts  --      1.6481                 1.7454                 1.8814
 IR Inten    --     23.2730                 2.9393                 4.3594

                     58                     59                     60
                      A                      A                      A
 Frequencies --   1421.4240              1428.7067              1484.0155
 Red. masses --      1.5765                 1.2581                 1.0888
 Frc consts  --      1.8767                 1.5131                 1.4128
 IR Inten    --      4.6204                 1.6826                 7.8076

                     61                     62                     63
                      A                      A                      A
 Frequencies --   1492.1446              1500.0725              1501.5875
 Red. masses --      1.0804                 1.0932                 1.0693
 Frc consts  --      1.4173                 1.4494                 1.4206
 IR Inten    --      1.6229                 0.7218                 1.1063

                     64                     65                     66
                      A                      A                      A
 Frequencies --   1506.6925              1507.6550              1512.0953
 Red. masses --      1.0841                 1.0854                 1.0929
 Frc consts  --      1.4500                 1.4535                 1.4722
 IR Inten    --      5.8313                 1.4849                 4.4691

                     67                     68                     69
                      A                      A                      A
 Frequencies --   1514.3792              1515.4213              1526.6407
 Red. masses --      1.0411                 1.0753                 1.0886
 Frc consts  --      1.4068                 1.4550                 1.4948
 IR Inten    --      5.4988                 0.0559                 3.6415

                     70                     71                     72
                      A                      A                      A
 Frequencies --   1849.2648              3011.4094              3016.1367
 Red. masses --      9.6321                 1.0613                 1.0610
 Frc consts  --     19.4075                 5.6705                 5.6869
 IR Inten    --    262.2078                 0.4408                15.1745

                     73                     74                     75
                      A                      A                      A
 Frequencies --   3023.6374              3026.2089              3027.9290
 Red. masses --      1.0622                 1.0618                 1.0670
 Frc consts  --      5.7214                 5.7291                 5.7640
 IR Inten    --     19.8652                68.1209                17.1886

                     76                     77                     78
                      A                      A                      A
 Frequencies --   3038.2148              3038.9101              3045.2345
 Red. masses --      1.0370                 1.0703                 1.0876
 Frc consts  --      5.6400                 5.8235                 5.9426
 IR Inten    --     32.8293                18.9880                 5.8012

                     79                     80                     81
                      A                      A                      A
 Frequencies --   3050.8793              3051.4724              3059.3335
 Red. masses --      1.0675                 1.0968                 1.0652
 Frc consts  --      5.8544                 6.0172                 5.8739
 IR Inten    --     40.2834                 1.7711                 8.0921

                     82                     83                     84
                      A                      A                      A
 Frequencies --   3063.1767              3068.5787              3075.9547
 Red. masses --      1.0971                 1.1006                 1.1033
 Frc consts  --      6.0650                 6.1062                 6.1504
 IR Inten    --     50.8269                45.6229                69.0817

                     85                     86                     87
                      A                      A                      A
 Frequencies --   3083.1438              3101.6467              3106.7913
 Red. masses --      1.0978                 1.1033                 1.1027
 Frc consts  --      6.1485                 6.2535                 6.2711
 IR Inten    --     28.2488                47.2781                61.7382

                     88                     89                     90
                      A                      A                      A
 Frequencies --   3112.5456              3128.7056              3754.4923
 Red. masses --      1.1020                 1.0993                 1.0641
 Frc consts  --      6.2901                 6.3402                 8.8380
 IR Inten    --     43.6973                22.6732                50.0714

 - Thermochemistry -
 -------------------
 Temperature   298.150 Kelvin.  Pressure   1.00000 Atm.
 Atom     1 has atomic number  8 and mass  15.99491

 Molecular mass:   172.14633 amu.
 Principal axes and moments of inertia in atomic units:
                           1         2         3
     Eigenvalues --  1390.239995442.884286380.77321
           X            0.99979  -0.02025   0.00305
           Y            0.02024   0.99978   0.00499
           Z           -0.00315  -0.00493   0.99998
 This molecule is an asymmetric top.
 Rotational symmetry number  1.
 Warning -- assumption of classical behavior for rotation
           may cause significant error
 Rotational temperatures (Kelvin)      0.06230     0.01591     0.01357
 Rotational constants (GHZ):           1.29815     0.33158     0.28284
 Zero-point vibrational energy     765382.1 (Joules/Mol)
                                  182.93071 (Kcal/Mol)
 Warning -- explicit consideration of  19 degrees of freedom as
           vibrations may cause significant error
 Vibrational temperatures:     25.53    31.86    43.49    92.73   114.58
          (Kelvin)            145.33   175.69   197.36   274.02   322.90
                              350.87   363.26   433.13   493.08   570.68
                              611.87   677.47   683.69   812.71   896.63
                             1017.88  1073.12  1082.80  1129.44  1168.33
                             1188.09  1212.19  1280.67  1309.81  1346.07
                             1393.11  1414.46  1464.89  1501.42  1521.08
                             1533.13  1570.60  1583.98  1622.89  1647.92
                             1681.41  1760.87  1766.40  1794.47  1826.66
                             1848.06  1888.50  1911.59  1919.33  1923.42
                             1937.52  1964.27  1984.56  1996.26  1999.12
                             2016.88  2042.32  2045.11  2055.59  2135.17
                             2146.86  2158.27  2160.45  2167.79  2169.18
                             2175.57  2178.85  2180.35  2196.50  2660.68
                             4332.75  4339.55  4350.34  4354.04  4356.51
                             4371.31  4372.31  4381.41  4389.53  4390.39
                             4401.70  4407.23  4415.00  4425.61  4435.96
                             4462.58  4469.98  4478.26  4501.51  5401.88

 Zero-point correction=                           0.291519 (Hartree/Particle)
 Thermal correction to Energy=                    0.306274
 Thermal correction to Enthalpy=                  0.307218
 Thermal correction to Gibbs Free Energy=         0.246366
 Sum of electronic and zero-point Energies=           -543.372917
 Sum of electronic and thermal Energies=              -543.358162
 Sum of electronic and thermal Enthalpies=            -543.357218
 Sum of electronic and thermal Free Energies=         -543.418069

                     E (Thermal)             CV                S
                      KCal/Mol        Cal/Mol-Kelvin    Cal/Mol-Kelvin
 Total                  192.190             52.512            128.073
 Electronic               0.000              0.000              0.000
 Translational            0.889              2.981             41.337
 Rotational               0.889              2.981             32.246
 Vibrational            190.412             46.551             54.490
 Vibration     1          0.593              1.986              6.872
 Vibration     2          0.593              1.985              6.432
 Vibration     3          0.594              1.984              5.815
 Vibration     4          0.597              1.971              4.316
 Vibration     5          0.600              1.963              3.900
 Vibration     6          0.604              1.948              3.435
 Vibration     7          0.610              1.931              3.067
 Vibration     8          0.614              1.916              2.843
 Vibration     9          0.634              1.853              2.223
 Vibration    10          0.649              1.804              1.923
 Vibration    11          0.659              1.773              1.774
 Vibration    12          0.664              1.759              1.713
 Vibration    13          0.693              1.672              1.411
 Vibration    14          0.722              1.590              1.200
 Vibration    15          0.763              1.477              0.975
 Vibration    16          0.787              1.415              0.874
 Vibration    17          0.828              1.315              0.735
 Vibration    18          0.832              1.305              0.723
 Vibration    19          0.921              1.107              0.514

 Optimization completed.
    -- Stationary point found.
 Normal termination of Gaussian 16 at Thu Feb  3 09:16:38 2022.

 ----------------------------------------------------------------------
 # M062X/def2tzvp int=(grid=ultrafine) pop=nbo7 polar prop=efg volume g
 uess=read geom=check
 ----------------------------------------------------------------------

 -------
 Ac1.xyz
 -------
 Structure from the checkpoint file:  "Ac1_clust-29.chk"
 Charge =  0 Multiplicity = 1

 SCF Done:  E(RM062X) =  -543.539280752     A.U. after   11 cycles

  Exact polarizability:     139.325      -0.947     128.440      -2.309      -1.101     108.189
 Approx polarizability:     142.668      -0.862     151.308      -2.751      -2.664     141.509

 Summary of Natural Population Analysis:

                                     Natural Population
             Natural    ---------------------------------------------
  Atom No    Charge        Core      Valence    Rydberg      Total
 --------------------------------------------------------------------
    O  1   -0.69772      2.00000     6.67553    0.02219     8.69772
    C  2    0.79491      1.99999     3.16693    0.03817     5.20509
    C  3   -0.50618      1.99999     4.49306    0.01313     6.50618
    C  4   -0.38917      1.99999     4.37815    0.01103     6.38917
    C  5   -0.40164      1.99999     4.39044    0.01120     6.40164
    C  6   -0.39892      1.99999     4.38756    0.01137     6.39892
    C  7   -0.39494      1.99999     4.38421    0.01074     6.39494
    C  8   -0.38691      1.99999     4.37571    0.01120     6.38691
    C  9   -0.39758      1.99999     4.38606    0.01152     6.39758
    C 10   -0.38967      1.99999     4.37942    0.01026     6.38967
    C 11   -0.60131      1.99999     4.59282    0.00850     6.60131
    O 12   -0.59180      2.00000     6.56541    0.02639     8.59180
    H 13    0.49415      0.00000     0.50237    0.00348     0.50585
    H 14    0.22840      0.00000     0.77014    0.00147     0.77160
    H 15    0.23596      0.00000     0.76275    0.00128     0.76404
    H 16    0.21118      0.00000     0.78698    0.00184     0.78882
    H 17    0.20535      0.00000     0.79292    0.00173     0.79465
    H 18    0.20207      0.00000     0.79603    0.00190     0.79793
    H 19    0.20427      0.00000     0.79396    0.00177     0.79573
    H 20    0.20319      0.00000     0.79512    0.00169     0.79681
    H 21    0.20254      0.00000     0.79584    0.00162     0.79746
    H 22    0.20766      0.00000     0.79097    0.00138     0.79234
    H 23    0.19124      0.00000     0.80680    0.00197     0.80876
    H 24    0.19881      0.00000     0.79943    0.00176     0.80119
    H 25    0.19264      0.00000     0.80540    0.00195     0.80736
    H 26    0.19134      0.00000     0.80661    0.00205     0.80866
    H 27    0.19453      0.00000     0.80355    0.00192     0.80547
    H 28    0.19423      0.00000     0.80397    0.00180     0.80577
    H 29    0.19318      0.00000     0.80500    0.00183     0.80682
    H 30    0.20840      0.00000     0.79065    0.00095     0.79160
    H 31    0.20037      0.00000     0.79839    0.00125     0.79963
    H 32    0.20141      0.00000     0.79736    0.00123     0.79859
 ====================================================================
 * Total *  0.00000     23.99992    71.77954    0.22055    96.00000

 1\1\GINC-NOTCH075\SP\RM062X\def2TZVP\C10H20O2\U6032257\03-Feb-2022\0\\
 # M062X/def2tzvp int=(grid=ultrafine) pop=nbo7 polar prop=efg volume g
 uess=read geom=check\\Ac1.xyz\\0,1\O,0,5.4212393013,-0.5709489683,0.50
 4747391\C,0,4.7777452947,0.0341983889,-0.5282366379\C,0,3.3002000802,-
 0.2830410406,-0.5310116761\C,0,3.0044258812,-1.7919107421,-0.547680760
 4\C,0,3.5955500499,-2.503319195,-1.7692132045\C,0,3.2578802289,-4.0021
 924425,-1.8250542062\C,0,1.7885248658,-4.3424498952,-2.1508157315\C,0,
 1.4821138773,-4.54369809,-3.6424128013\C,0,1.7138121831,-3.3233248741,

 Normal termination of Gaussian 16 at Thu Feb  3 09:20:01 2022.
 Gaussian 16:  ES64L-G16RevC.01  3-Jul-2019

 --------------------------------------------------------------------
 # M062X/def2tzvp int=(grid=ultrafine) nmr=giao guess=read geom=check
 --------------------------------------------------------------------

 -------
 Ac1.xyz
 -------
 Structure from the checkpoint file:  "Ac1_clust-29.chk"
 Charge =  0 Multiplicity = 1

                         Standard orientation:
 ---------------------------------------------------------------------
 Center     Atomic      Atomic             Coordinates (Angstroms)
 Number     Number       Type             X           Y           Z
 ---------------------------------------------------------------------
      1          8           0        4.159383   -0.121338   -0.499217
      2          6           0        3.375402    0.862319    0.015697
      3          6           0        2.510864    0.355493    1.146842
      4          6           0        1.640214   -0.848690    0.751418
      5          6           0        0.687653   -0.542082   -0.408880
      6          6           0       -0.227300   -1.722062   -0.775303
      7          6           0       -1.336756   -2.047235    0.246594
      8          6           0       -2.678737   -1.343006   -0.003200
      9          6           0       -2.648268    0.186929    0.062877
     10          6           0       -4.037819    0.819109   -0.061610
     11          6           0       -4.005990    2.347809   -0.011066
     12          8           0        3.399902    1.995099   -0.411130
     13          1           0        4.669321    0.294607   -1.214456
     14          1           0        1.895684    1.196022    1.476366
     15          1           0        3.174491    0.075794    1.973721
     16          1           0        2.289050   -1.688962    0.480800
     17          1           0        1.072761   -1.160281    1.635320
     18          1           0        0.090479    0.342310   -0.161010
     19          1           0        1.282802   -0.270998   -1.290187
     20          1           0       -0.691016   -1.530125   -1.751536
     21          1           0        0.406709   -2.606915   -0.916060
     22          1           0       -1.520249   -3.128158    0.239680
     23          1           0       -0.990642   -1.813145    1.261948
     24          1           0       -3.406764   -1.711355    0.732293
     25          1           0       -3.062956   -1.648751   -0.986623
     26          1           0       -2.189328    0.504308    1.010282
     27          1           0       -2.007472    0.583413   -0.734614
     28          1           0       -4.499621    0.491090   -1.002563
     29          1           0       -4.681790    0.436357    0.741457
     30          1           0       -5.009795    2.774832   -0.100943
     31          1           0       -3.576111    2.701895    0.932628
     32          1           0       -3.395411    2.756466   -0.823948
 ---------------------------------------------------------------------

 SCF Done:  E(RM062X) =  -543.539280752     A.U. after    1 cycles

      1  O    Isotropic =   106.8153   Anisotropy =   233.0109

      2  C    Isotropic =    -8.5826   Anisotropy =   128.7715

      3  C    Isotropic =   146.6437   Anisotropy =    28.1758

      4  C    Isotropic =   158.4169   Anisotropy =    19.9608

      5  C    Isotropic =   154.8051   Anisotropy =    22.3383

      6  C    Isotropic =   154.5182   Anisotropy =    18.6677

      7  C    Isotropic =   159.0729   Anisotropy =    14.8930

      8  C    Isotropic =   148.9132   Anisotropy =    27.2634

      9  C    Isotropic =   148.8627   Anisotropy =    32.1677

     10  C    Isotropic =   157.7953   Anisotropy =    25.1684

     11  C    Isotropic =   170.1259   Anisotropy =    27.9236

     12  O    Isotropic =  -181.7855   Anisotropy =   628.9416

     13  H    Isotropic =    25.8494   Anisotropy =    11.2544

     14  H    Isotropic =    29.7956   Anisotropy =     5.6842

     15  H    Isotropic =    29.4069   Anisotropy =     7.9843

     16  H    Isotropic =    30.3509   Anisotropy =     7.5276

     17  H    Isotropic =    30.1991   Anisotropy =     5.9723

     18  H    Isotropic =    30.6525   Anisotropy =     8.5704

     19  H    Isotropic =    30.5121   Anisotropy =     7.5534

     20  H    Isotropic =    30.5284   Anisotropy =     6.6465

     21  H    Isotropic =    30.4983   Anisotropy =     8.3910

     22  H    Isotropic =    30.3808   Anisotropy =     9.8940

     23  H    Isotropic =    30.6971   Anisotropy =     5.3757

     24  H    Isotropic =    30.4857   Anisotropy =     7.7128

     25  H    Isotropic =    30.6727   Anisotropy =     6.5708

     26  H    Isotropic =    30.9915   Anisotropy =     4.3559

     27  H    Isotropic =    30.4125   Anisotropy =     6.3837

     28  H    Isotropic =    30.6790   Anisotropy =     7.0042

     29  H    Isotropic =    30.7244   Anisotropy =     7.1768

     30  H    Isotropic =    30.7616   Anisotropy =    11.2208

     31  H    Isotropic =    31.0295   Anisotropy =     8.0732

     32  H    Isotropic =    31.0135   Anisotropy =     7.9723

 The electronic state is 1-A.
 Alpha  occ. eigenvalues --  -19.67466 -19.62023 -10.67827 -10.55374 -10.54286
 Alpha  occ. eigenvalues --  -10.53309 -10.53187 -10.53037 -10.52887 -10.52880
 Alpha  occ. eigenvalues --  -10.52766 -10.52114  -1.23462  -1.13900  -0.92169
 Alpha  occ. eigenvalues --   -0.90140  -0.86955  -0.82797  -0.77979  -0.73920
 Alpha  occ. eigenvalues --   -0.69842  -0.67856  -0.65909  -0.64270  -0.58118
 Alpha  occ. eigenvalues --   -0.56917  -0.55308  -0.54343  -0.53187  -0.51530
 Alpha  occ. eigenvalues --   -0.50964  -0.48893  -0.48029  -0.47395  -0.46334
 Alpha  occ. eigenvalues --   -0.45506  -0.44422  -0.43280  -0.41401  -0.40803
 Alpha  occ. eigenvalues --   -0.40071  -0.39846  -0.39336  -0.38371  -0.37573
 Alpha  occ. eigenvalues --   -0.36738  -0.36173  -0.35344
 Alpha virt. eigenvalues --    0.04254   0.05665   0.06716   0.07596   0.07801
 Alpha virt. eigenvalues --    0.09341   0.10124   0.10466   0.11599   0.12107
 Alpha virt. eigenvalues --    0.12803   0.13820   0.14179   0.14725   0.15376

 Mulliken charges:
               1
     1  O   -0.409537
     2  C    0.320464
     3  C   -0.297098
     4  C   -0.271478
     5  C   -0.327769
     6  C   -0.307959
     7  C   -0.268260
     8  C   -0.288808
     9  C   -0.305808
    10  C   -0.240305
    11  C   -0.422500
    12  O   -0.327433
    13  H    0.336009
    14  H    0.165970
    15  H    0.165398
    16  H    0.164309
    17  H    0.141417
    18  H    0.169350
    19  H    0.157166
    20  H    0.158378
    21  H    0.153798
    22  H    0.145472
    23  H    0.143970
    24  H    0.138767
    25  H    0.150447
    26  H    0.141577
    27  H    0.139460
    28  H    0.129534
    29  H    0.130857
    30  H    0.141659
    31  H    0.135297
    32  H    0.137657
 Sum of Mulliken charges =  -0.00000

 Dipole moment (field-independent basis, Debye):
    X=             -0.4034    Y=             -1.8799    Z=              0.4427  Tot=              1.9730
 Quadrupole moment (field-independent basis, Debye-Ang):
   XX=            -75.6850   YY=            -85.1660   ZZ=            -73.8320
   XY=             -5.0886   XZ=             -0.8145   YZ=              1.3329

 1\1\GINC-NOTCH075\SP\RM062X\def2TZVP\C10H20O2\U6032257\03-Feb-2022\0\\
 # M062X/def2tzvp int=(grid=ultrafine) nmr=giao guess=read geom=check\\
 Ac1.xyz\\0,1\O,0,5.4212393013,-0.5709489683,0.504747391\C,0,4.77774529
 47,0.0341983889,-0.5282366379\C,0,3.3002000802,-0.2830410406,-0.531011
 6761\C,0,3.0044258812,-1.7919107421,-0.5476807604\C,0,3.5955500499,-2.
 503319195,-1.7692132045\C,0,3.2578802289,-4.0021924425,-1.8250542062\C
 ,0,1.7885248658,-4.3424498952,-2.1508157315\C,0,1.4821138773,-4.543698
 09,-3.6424128013\C,0,1.7138121831,-3.3233248741,-4.5385148878\C,0,1.26

 Normal termination of Gaussian 16 at Thu Feb  3 09:21:23 2022.
