 Gaussian 16, Revision C.01,

 ----------------------------------------------------------------------
 # B3LYP/6-31G(d,p) empiricaldispersion=GD3BJ int=(grid=ultrafine) opt
 freq=noraman
 ----------------------------------------------------------------------

 -------
 Ac1.xyz
 -------
 Symbolic Z-matrix:
 Charge =  0 Multiplicity = 1

 SCF Done:  E(RB3LYP) =  -543.666235454     A.U. after   13 cycles
 SCF Done:  E(RB3LYP) =  -543.668557964     A.U. after   12 cycles
 SCF Done:  E(RB3LYP) =  -543.668661922     A.U. after   11 cycles
 SCF Done:  E(RB3LYP) =  -543.668717941     A.U. after   10 cycles
 SCF Done:  E(RB3LYP) =  -543.668700814     A.U. after    9 cycles
 SCF Done:  E(RB3LYP) =  -543.668721440     A.U. after   10 cycles
 SCF Done:  E(RB3LYP) =  -543.668730602     A.U. after    9 cycles
 SCF Done:  E(RB3LYP) =  -543.668731139     A.U. after    8 cycles
 SCF Done:  E(RB3LYP) =  -543.668731421     A.U. after    8 cycles
 SCF Done:  E(RB3LYP) =  -543.668731457     A.U. after    7 cycles
 SCF Done:  E(RB3LYP) =  -543.668731447     A.U. after    6 cycles
 Optimization completed.
    -- Stationary point found.
 Normal termination of Gaussian 16 at Thu Feb  3 08:04:03 2022.

 ----------------------------------------------------------------------
 #N Geom=AllCheck Guess=TCheck SCRF=Check GenChk RB3LYP/6-31G(d,p) Freq
 ----------------------------------------------------------------------

 Structure from the checkpoint file:  "Ac1_clust-20.chk"
 -------
 Ac1.xyz
 -------
 Charge =  0 Multiplicity = 1

 SCF Done:  E(RB3LYP) =  -543.668731447     A.U. after    1 cycles

                      1                      2                      3
                      A                      A                      A
 Frequencies --     20.7003                25.1290                35.9630
 Red. masses --      3.9910                 3.3436                 9.5331
 Frc consts  --      0.0010                 0.0012                 0.0073
 IR Inten    --      0.0852                 0.0760                 1.4384

                      4                      5                      6
                      A                      A                      A
 Frequencies --     66.6145                72.4834                99.9659
 Red. masses --      1.8228                 2.9096                 2.2336
 Frc consts  --      0.0048                 0.0090                 0.0132
 IR Inten    --      0.0506                 0.1625                 0.2098

                      7                      8                      9
                      A                      A                      A
 Frequencies --    109.7377               145.8585               188.7174
 Red. masses --      2.1826                 3.0268                 2.7367
 Frc consts  --      0.0155                 0.0379                 0.0574
 IR Inten    --      0.0414                 0.1648                 1.3459

                     10                     11                     12
                      A                      A                      A
 Frequencies --    216.0972               248.0060               269.9321
 Red. masses --      2.2479                 1.2549                 1.8117
 Frc consts  --      0.0618                 0.0455                 0.0778
 IR Inten    --      0.3588                 0.1071                 0.0985

                     13                     14                     15
                      A                      A                      A
 Frequencies --    280.5871               335.0432               353.2207
 Red. masses --      2.6989                 2.7158                 2.7440
 Frc consts  --      0.1252                 0.1796                 0.2017
 IR Inten    --      1.3318                 0.6485                 0.1654

                     16                     17                     18
                      A                      A                      A
 Frequencies --    434.9461               492.9400               521.4565
 Red. masses --      2.7118                 3.1939                 1.8836
 Frc consts  --      0.3023                 0.4573                 0.3018
 IR Inten    --      3.5124                16.9608                18.9289

                     19                     20                     21
                      A                      A                      A
 Frequencies --    537.6029               623.3420               681.8049
 Red. masses --      2.2124                 3.4583                 1.3669
 Frc consts  --      0.3767                 0.7917                 0.3744
 IR Inten    --      3.2944                17.2812                94.7375

                     22                     23                     24
                      A                      A                      A
 Frequencies --    733.1544               747.0961               762.8768
 Red. masses --      1.1268                 1.1971                 1.3062
 Frc consts  --      0.3568                 0.3937                 0.4479
 IR Inten    --      8.2349                10.1201                 8.5874

                     25                     26                     27
                      A                      A                      A
 Frequencies --    800.6153               848.0563               854.3200
 Red. masses --      1.6321                 2.4416                 1.4660
 Frc consts  --      0.6164                 1.0346                 0.6304
 IR Inten    --      5.5243                 5.1222                 0.9259

                     28                     29                     30
                      A                      A                      A
 Frequencies --    875.9941               912.0196               950.8512
 Red. masses --      2.1295                 1.6576                 2.1293
 Frc consts  --      0.9628                 0.8124                 1.1343
 IR Inten    --      3.5089                 0.8380                 3.7968

                     31                     32                     33
                      A                      A                      A
 Frequencies --    966.6927               986.9238              1034.6581
 Red. masses --      1.5327                 1.8009                 2.2587
 Frc consts  --      0.8439                 1.0335                 1.4246
 IR Inten    --      3.9613                 0.3251                 0.2807

                     34                     35                     36
                      A                      A                      A
 Frequencies --   1049.2415              1055.9078              1078.5156
 Red. masses --      1.6116                 2.5161                 2.1542
 Frc consts  --      1.0454                 1.6528                 1.4764
 IR Inten    --      0.2955                 0.3924                14.7308

                     37                     38                     39
                      A                      A                      A
 Frequencies --   1093.4252              1098.7432              1127.8508
 Red. masses --      2.0906                 2.0501                 1.7754
 Frc consts  --      1.4727                 1.4582                 1.3306
 IR Inten    --      0.5158                 1.3460                94.5896

                     40                     41                     42
                      A                      A                      A
 Frequencies --   1143.1171              1175.6106              1206.7548
 Red. masses --      1.7720                 2.2685                 1.7017
 Frc consts  --      1.3643                 1.8472                 1.4600
 IR Inten    --      0.2851               130.1065                36.3862

                     43                     44                     45
                      A                      A                      A
 Frequencies --   1214.2315              1257.6821              1277.7680
 Red. masses --      1.3716                 1.3887                 1.3441
 Frc consts  --      1.1914                 1.2942                 1.2930
 IR Inten    --     20.2058                 2.0239                 2.3974

                     46                     47                     48
                      A                      A                      A
 Frequencies --   1289.0548              1311.2084              1322.9988
 Red. masses --      1.3050                 1.3400                 1.4097
 Frc consts  --      1.2776                 1.3574                 1.4538
 IR Inten    --      2.3084                 5.6317                 6.0771

                     49                     50                     51
                      A                      A                      A
 Frequencies --   1329.9776              1338.2194              1342.5327
 Red. masses --      1.2243                 1.1286                 1.0863
 Frc consts  --      1.2759                 1.1908                 1.1536
 IR Inten    --      1.6118                 2.0507                 2.4167

                     52                     53                     54
                      A                      A                      A
 Frequencies --   1349.3955              1365.8149              1398.9704
 Red. masses --      1.1800                 1.2816                 1.4272
 Frc consts  --      1.2659                 1.4086                 1.6457
 IR Inten    --      3.8919                 5.8510                 6.2651

                     55                     56                     57
                      A                      A                      A
 Frequencies --   1407.9990              1412.7873              1419.6301
 Red. masses --      1.5836                 1.5434                 1.6230
 Frc consts  --      1.8497                 1.8151                 1.9271
 IR Inten    --      5.4764                 2.0097                 0.5302

                     58                     59                     60
                      A                      A                      A
 Frequencies --   1427.4633              1429.4260              1476.0802
 Red. masses --      1.2544                 1.9770                 1.0950
 Frc consts  --      1.5060                 2.3800                 1.4057
 IR Inten    --      0.5720                51.3492                14.7985

                     61                     62                     63
                      A                      A                      A
 Frequencies --   1493.6126              1497.1198              1500.4022
 Red. masses --      1.0879                 1.0770                 1.0742
 Frc consts  --      1.4300                 1.4223                 1.4248
 IR Inten    --      7.2130                 2.3991                 0.2181

                     64                     65                     66
                      A                      A                      A
 Frequencies --   1503.0115              1509.5900              1512.3300
 Red. masses --      1.0817                 1.0659                 1.0946
 Frc consts  --      1.4397                 1.4312                 1.4750
 IR Inten    --      0.8262                 0.5338                 0.6055

                     67                     68                     69
                      A                      A                      A
 Frequencies --   1514.2917              1524.0703              1526.3412
 Red. masses --      1.0408                 1.0871                 1.0941
 Frc consts  --      1.4061                 1.4878                 1.5018
 IR Inten    --      5.5985                 3.9330                 3.1251

                     70                     71                     72
                      A                      A                      A
 Frequencies --   1841.3216              3010.9901              3012.1511
 Red. masses --      9.5911                 1.0599                 1.0592
 Frc consts  --     19.1593                 5.6616                 5.6622
 IR Inten    --    223.2086                 2.8872                 5.8900

                     73                     74                     75
                      A                      A                      A
 Frequencies --   3015.5847              3022.2672              3027.8333
 Red. masses --      1.0640                 1.0650                 1.0643
 Frc consts  --      5.7007                 5.7313                 5.7491
 IR Inten    --     12.1024                48.1676                35.4200

                     76                     77                     78
                      A                      A                      A
 Frequencies --   3035.2490              3037.2780              3041.4845
 Red. masses --      1.0738                 1.0365                 1.0687
 Frc consts  --      5.8285                 5.6338                 5.8250
 IR Inten    --     21.9389                44.1478                11.4352

                     79                     80                     81
                      A                      A                      A
 Frequencies --   3044.2554              3047.2382              3049.7838
 Red. masses --      1.0849                 1.0953                 1.0956
 Frc consts  --      5.9237                 5.9923                 6.0042
 IR Inten    --     41.4084                19.2670                 1.2267

                     82                     83                     84
                      A                      A                      A
 Frequencies --   3053.6126              3072.4729              3074.8512
 Red. masses --      1.0702                 1.1034                 1.1003
 Frc consts  --      5.8798                 6.1371                 6.1294
 IR Inten    --     22.8296                55.0450                32.3524

                     85                     86                     87
                      A                      A                      A
 Frequencies --   3086.9728              3095.7318              3106.4136
 Red. masses --      1.0987                 1.1007                 1.1028
 Frc consts  --      6.1686                 6.2149                 6.2702
 IR Inten    --     46.3692                46.3617                64.3497

                     88                     89                     90
                      A                      A                      A
 Frequencies --   3108.9262              3111.8310              3750.2449
 Red. masses --      1.0948                 1.1019                 1.0640
 Frc consts  --      6.2346                 6.2865                 8.8171
 IR Inten    --     27.5278                42.6687                45.2827

 - Thermochemistry -
 -------------------
 Temperature   298.150 Kelvin.  Pressure   1.00000 Atm.
 Atom     1 has atomic number  8 and mass  15.99491

 Molecular mass:   172.14633 amu.
 Principal axes and moments of inertia in atomic units:
                           1         2         3
     Eigenvalues --  1101.692416912.402157340.77085
           X            0.99988  -0.01543  -0.00316
           Y            0.01545   0.99986   0.00646
           Z            0.00306  -0.00651   0.99997
 This molecule is an asymmetric top.
 Rotational symmetry number  1.
 Warning -- assumption of classical behavior for rotation
           may cause significant error
 Rotational temperatures (Kelvin)      0.07862     0.01253     0.01180
 Rotational constants (GHZ):           1.63815     0.26109     0.24585
 Zero-point vibrational energy     764779.1 (Joules/Mol)
                                  182.78659 (Kcal/Mol)
 Warning -- explicit consideration of  19 degrees of freedom as
           vibrations may cause significant error
 Vibrational temperatures:     29.78    36.16    51.74    95.84   104.29
          (Kelvin)            143.83   157.89   209.86   271.52   310.92
                              356.83   388.37   403.70   482.05   508.21
                              625.79   709.23   750.26   773.49   896.85
                              980.97  1054.85  1074.90  1097.61  1151.91
                             1220.16  1229.18  1260.36  1312.19  1368.06
                             1390.86  1419.96  1488.64  1509.62  1519.22
                             1551.74  1573.20  1580.85  1622.73  1644.69
                             1691.44  1736.25  1747.01  1809.52  1838.42
                             1854.66  1886.54  1903.50  1913.54  1925.40
                             1931.61  1941.48  1965.10  2012.81  2025.80
                             2032.69  2042.53  2053.80  2056.63  2123.75
                             2148.98  2154.02  2158.74  2162.50  2171.96
                             2175.91  2178.73  2192.80  2196.06  2649.25
                             4332.14  4333.81  4338.75  4348.37  4356.38
                             4367.05  4369.97  4376.02  4380.00  4384.30
                             4387.96  4393.47  4420.60  4424.03  4441.47
                             4454.07  4469.44  4473.05  4477.23  5395.77

 Zero-point correction=                           0.291289 (Hartree/Particle)
 Thermal correction to Energy=                    0.306076
 Thermal correction to Enthalpy=                  0.307020
 Thermal correction to Gibbs Free Energy=         0.246340
 Sum of electronic and zero-point Energies=           -543.377442
 Sum of electronic and thermal Energies=              -543.362656
 Sum of electronic and thermal Enthalpies=            -543.361712
 Sum of electronic and thermal Free Energies=         -543.422391

                     E (Thermal)             CV                S
                      KCal/Mol        Cal/Mol-Kelvin    Cal/Mol-Kelvin
 Total                  192.065             52.581            127.711
 Electronic               0.000              0.000              0.000
 Translational            0.889              2.981             41.337
 Rotational               0.889              2.981             32.391
 Vibrational            190.288             46.619             53.983
 Vibration     1          0.593              1.986              6.566
 Vibration     2          0.593              1.985              6.181
 Vibration     3          0.594              1.982              5.470
 Vibration     4          0.598              1.970              4.251
 Vibration     5          0.599              1.967              4.085
 Vibration     6          0.604              1.949              3.455
 Vibration     7          0.606              1.941              3.274
 Vibration     8          0.617              1.907              2.726
 Vibration     9          0.633              1.855              2.240
 Vibration    10          0.645              1.817              1.992
 Vibration    11          0.662              1.766              1.745
 Vibration    12          0.674              1.729              1.597
 Vibration    13          0.680              1.710              1.530
 Vibration    14          0.716              1.606              1.236
 Vibration    15          0.729              1.569              1.152
 Vibration    16          0.796              1.394              0.843
 Vibration    17          0.849              1.266              0.676
 Vibration    18          0.876              1.202              0.607
 Vibration    19          0.893              1.167              0.570

 Optimization completed.
    -- Stationary point found.
 Normal termination of Gaussian 16 at Thu Feb  3 08:05:22 2022.

 ----------------------------------------------------------------------
 # M062X/def2tzvp int=(grid=ultrafine) pop=nbo7 polar prop=efg volume g
 uess=read geom=check
 ----------------------------------------------------------------------

 -------
 Ac1.xyz
 -------
 Structure from the checkpoint file:  "Ac1_clust-20.chk"
 Charge =  0 Multiplicity = 1

 SCF Done:  E(RM062X) =  -543.543390159     A.U. after   11 cycles

  Exact polarizability:     144.331      -2.206     118.762      -2.307       0.857     114.682
 Approx polarizability:     139.179       1.494     144.338      -1.618       0.728     151.237

 Summary of Natural Population Analysis:

                                     Natural Population
             Natural    ---------------------------------------------
  Atom No    Charge        Core      Valence    Rydberg      Total
 --------------------------------------------------------------------
    O  1   -0.68729      2.00000     6.66533    0.02196     8.68729
    C  2    0.79617      1.99999     3.16682    0.03702     5.20383
    C  3   -0.51850      1.99999     4.50544    0.01307     6.51850
    C  4   -0.38907      1.99999     4.37701    0.01207     6.38907
    C  5   -0.39698      1.99999     4.38584    0.01115     6.39698
    C  6   -0.39340      1.99999     4.38242    0.01098     6.39340
    C  7   -0.39232      1.99999     4.38102    0.01131     6.39232
    C  8   -0.38659      1.99999     4.37581    0.01079     6.38659
    C  9   -0.38808      1.99999     4.37694    0.01114     6.38808
    C 10   -0.39724      1.99999     4.38688    0.01037     6.39724
    C 11   -0.60021      1.99999     4.59168    0.00854     6.60021
    O 12   -0.60183      2.00000     6.57542    0.02642     8.60183
    H 13    0.49258      0.00000     0.50402    0.00340     0.50742
    H 14    0.24253      0.00000     0.75631    0.00116     0.75747
    H 15    0.23176      0.00000     0.76678    0.00146     0.76824
    H 16    0.20231      0.00000     0.79608    0.00161     0.79769
    H 17    0.22086      0.00000     0.77760    0.00155     0.77914
    H 18    0.20303      0.00000     0.79537    0.00160     0.79697
    H 19    0.21110      0.00000     0.78699    0.00191     0.78890
    H 20    0.19053      0.00000     0.80756    0.00191     0.80947
    H 21    0.19175      0.00000     0.80621    0.00203     0.80825
    H 22    0.19329      0.00000     0.80473    0.00197     0.80671
    H 23    0.19705      0.00000     0.80108    0.00187     0.80295
    H 24    0.19859      0.00000     0.79973    0.00168     0.80141
    H 25    0.19231      0.00000     0.80575    0.00194     0.80769
    H 26    0.19846      0.00000     0.79982    0.00172     0.80154
    H 27    0.19205      0.00000     0.80598    0.00198     0.80795
    H 28    0.19581      0.00000     0.80250    0.00169     0.80419
    H 29    0.19326      0.00000     0.80489    0.00184     0.80674
    H 30    0.20052      0.00000     0.79821    0.00127     0.79948
    H 31    0.20797      0.00000     0.79106    0.00097     0.79203
    H 32    0.19956      0.00000     0.79913    0.00131     0.80044
 ====================================================================
 * Total *  0.00000     23.99992    71.78039    0.21969    96.00000

 1\1\GINC-NOTCH075\SP\RM062X\def2TZVP\C10H20O2\U6032257\03-Feb-2022\0\\
 # M062X/def2tzvp int=(grid=ultrafine) pop=nbo7 polar prop=efg volume g
 uess=read geom=check\\Ac1.xyz\\0,1\O,0,6.2800382884,-0.6465915033,-0.1
 670969105\C,0,4.9535515106,-0.427444088,0.013885523\C,0,4.2658372326,-
 1.6355414442,0.6085993287\C,0,2.7395159013,-1.5699104466,0.5077713605\
 C,0,2.1931354453,-1.6304399249,-0.9254084049\C,0,2.5023494364,-2.93303
 85907,-1.6699273397\C,0,1.86431919,-2.991015998,-3.0606911979\C,0,2.18
 52980253,-4.2843588519,-3.8166979729\C,0,1.4916906699,-4.4119681424,-5

 Normal termination of Gaussian 16 at Thu Feb  3 08:08:29 2022.
 Gaussian 16:  ES64L-G16RevC.01  3-Jul-2019

 --------------------------------------------------------------------
 # M062X/def2tzvp int=(grid=ultrafine) nmr=giao guess=read geom=check
 --------------------------------------------------------------------

 -------
 Ac1.xyz
 -------
 Structure from the checkpoint file:  "Ac1_clust-20.chk"
 Charge =  0 Multiplicity = 1

                         Standard orientation:
 ---------------------------------------------------------------------
 Center     Atomic      Atomic             Coordinates (Angstroms)
 Number     Number       Type             X           Y           Z
 ---------------------------------------------------------------------
      1          8           0        3.805597    1.722660   -1.008035
      2          6           0        3.516837    0.841419   -0.017893
      3          6           0        3.231176   -0.538275   -0.566506
      4          6           0        2.568645   -1.466998    0.454600
      5          6           0        1.152332   -1.047220    0.871785
      6          6           0        0.127093   -1.047887   -0.266445
      7          6           0       -1.289872   -0.712053    0.206940
      8          6           0       -2.316017   -0.693885   -0.930604
      9          6           0       -3.760753   -0.444759   -0.478288
     10          6           0       -4.003593    0.935961    0.141348
     11          6           0       -5.471758    1.171983    0.502107
     12          8           0        3.522108    1.158990    1.151693
     13          1           0        4.003794    2.565351   -0.565526
     14          1           0        4.195813   -0.949737   -0.891161
     15          1           0        2.636307   -0.430519   -1.478416
     16          1           0        2.539951   -2.478015    0.030111
     17          1           0        3.204763   -1.511058    1.344251
     18          1           0        0.808295   -1.731886    1.657606
     19          1           0        1.194782   -0.053268    1.331579
     20          1           0        0.419735   -0.324644   -1.039419
     21          1           0        0.123903   -2.031833   -0.757195
     22          1           0       -1.602726   -1.443821    0.965278
     23          1           0       -1.273165    0.261165    0.713370
     24          1           0       -2.269872   -1.653614   -1.462328
     25          1           0       -2.028798    0.073006   -1.663970
     26          1           0       -4.429801   -0.565539   -1.340785
     27          1           0       -4.053990   -1.220438    0.243426
     28          1           0       -3.386930    1.054677    1.040270
     29          1           0       -3.667696    1.709332   -0.562963
     30          1           0       -5.823725    0.427617    1.225222
     31          1           0       -5.624267    2.162222    0.942906
     32          1           0       -6.112543    1.098094   -0.383778
 ---------------------------------------------------------------------

 SCF Done:  E(RM062X) =  -543.543390159     A.U. after    1 cycles

      1  O    Isotropic =   101.0903   Anisotropy =   244.2666

      2  C    Isotropic =    -8.8414   Anisotropy =   124.1309

      3  C    Isotropic =   154.1207   Anisotropy =    39.3662

      4  C    Isotropic =   160.1791   Anisotropy =    15.9332

      5  C    Isotropic =   156.4157   Anisotropy =    26.1724

      6  C    Isotropic =   153.5460   Anisotropy =    29.4822

      7  C    Isotropic =   152.4533   Anisotropy =    30.6721

      8  C    Isotropic =   151.5833   Anisotropy =    26.4573

      9  C    Isotropic =   150.2057   Anisotropy =    27.8300

     10  C    Isotropic =   161.1261   Anisotropy =    15.5205

     11  C    Isotropic =   170.2317   Anisotropy =    28.2442

     12  O    Isotropic =  -163.5795   Anisotropy =   659.3375

     13  H    Isotropic =    25.7231   Anisotropy =    11.4746

     14  H    Isotropic =    29.7082   Anisotropy =     8.6647

     15  H    Isotropic =    29.3113   Anisotropy =     4.4772

     16  H    Isotropic =    30.7124   Anisotropy =     8.6580

     17  H    Isotropic =    29.8025   Anisotropy =     9.0956

     18  H    Isotropic =    30.6057   Anisotropy =     7.2519

     19  H    Isotropic =    30.2825   Anisotropy =     5.8212

     20  H    Isotropic =    30.6228   Anisotropy =     6.3557

     21  H    Isotropic =    31.0636   Anisotropy =     5.4444

     22  H    Isotropic =    31.0050   Anisotropy =     5.1045

     23  H    Isotropic =    30.4947   Anisotropy =     6.4514

     24  H    Isotropic =    30.4520   Anisotropy =     6.7728

     25  H    Isotropic =    30.7041   Anisotropy =     5.4818

     26  H    Isotropic =    30.5124   Anisotropy =     7.6351

     27  H    Isotropic =    30.7504   Anisotropy =     5.7867

     28  H    Isotropic =    30.3577   Anisotropy =     6.5518

     29  H    Isotropic =    30.9492   Anisotropy =     6.6895

     30  H    Isotropic =    31.1152   Anisotropy =     8.7125

     31  H    Isotropic =    30.7589   Anisotropy =    10.7970

     32  H    Isotropic =    31.0968   Anisotropy =     9.0157

 The electronic state is 1-A.
 Alpha  occ. eigenvalues --  -19.67572 -19.62212 -10.68033 -10.55462 -10.53784
 Alpha  occ. eigenvalues --  -10.52905 -10.52761 -10.52706 -10.52689 -10.52663
 Alpha  occ. eigenvalues --  -10.52611 -10.52044  -1.23636  -1.14085  -0.91853
 Alpha  occ. eigenvalues --   -0.90054  -0.86808  -0.82764  -0.78414  -0.73328
 Alpha  occ. eigenvalues --   -0.69645  -0.67674  -0.64522  -0.64135  -0.58600
 Alpha  occ. eigenvalues --   -0.57318  -0.56402  -0.54496  -0.53056  -0.51155
 Alpha  occ. eigenvalues --   -0.50018  -0.49187  -0.48498  -0.46967  -0.46528
 Alpha  occ. eigenvalues --   -0.44831  -0.43237  -0.42793  -0.41548  -0.40526
 Alpha  occ. eigenvalues --   -0.40359  -0.39468  -0.38941  -0.38016  -0.37724
 Alpha  occ. eigenvalues --   -0.36751  -0.35976  -0.35779
 Alpha virt. eigenvalues --    0.04116   0.05984   0.06938   0.07560   0.08512
 Alpha virt. eigenvalues --    0.08901   0.09233   0.10951   0.11382   0.12019
 Alpha virt. eigenvalues --    0.13742   0.13836   0.14628   0.14859   0.15714

 Mulliken charges:
               1
     1  O   -0.409291
     2  C    0.355483
     3  C   -0.360909
     4  C   -0.260857
     5  C   -0.318420
     6  C   -0.288142
     7  C   -0.307074
     8  C   -0.267075
     9  C   -0.278100
    10  C   -0.255995
    11  C   -0.429127
    12  O   -0.337547
    13  H    0.334468
    14  H    0.176263
    15  H    0.183717
    16  H    0.151371
    17  H    0.166104
    18  H    0.143501
    19  H    0.182259
    20  H    0.137403
    21  H    0.141722
    22  H    0.142723
    23  H    0.148676
    24  H    0.140020
    25  H    0.146930
    26  H    0.139293
    27  H    0.142793
    28  H    0.135011
    29  H    0.131018
    30  H    0.136254
    31  H    0.141301
    32  H    0.136226
 Sum of Mulliken charges =  -0.00000

 Dipole moment (field-independent basis, Debye):
    X=             -0.0520    Y=             -0.4787    Z=             -1.3766  Tot=              1.4584
 Quadrupole moment (field-independent basis, Debye-Ang):
   XX=            -77.8845   YY=            -72.6715   ZZ=            -82.0532
   XY=             -0.4269   XZ=             -4.7642   YZ=             -1.7566

 1\1\GINC-NOTCH075\SP\RM062X\def2TZVP\C10H20O2\U6032257\03-Feb-2022\0\\
 # M062X/def2tzvp int=(grid=ultrafine) nmr=giao guess=read geom=check\\
 Ac1.xyz\\0,1\O,0,6.2800382884,-0.6465915033,-0.1670969105\C,0,4.953551
 5106,-0.427444088,0.013885523\C,0,4.2658372326,-1.6355414442,0.6085993
 287\C,0,2.7395159013,-1.5699104466,0.5077713605\C,0,2.1931354453,-1.63
 04399249,-0.9254084049\C,0,2.5023494364,-2.9330385907,-1.6699273397\C,
 0,1.86431919,-2.991015998,-3.0606911979\C,0,2.1852980253,-4.2843588519
 ,-3.8166979729\C,0,1.4916906699,-4.4119681424,-5.1792468442\C,0,1.9251

 Normal termination of Gaussian 16 at Thu Feb  3 08:09:46 2022.
