 Gaussian 16, Revision C.01,

 ----------------------------------------------------------------------
 # B3LYP/6-31G(d,p) empiricaldispersion=GD3BJ int=(grid=ultrafine) opt
 freq=noraman
 ----------------------------------------------------------------------

 -------
 Ac1.xyz
 -------
 Symbolic Z-matrix:
 Charge =  0 Multiplicity = 1

 SCF Done:  E(RB3LYP) =  -543.666799940     A.U. after   13 cycles
 SCF Done:  E(RB3LYP) =  -543.668714805     A.U. after   11 cycles
 SCF Done:  E(RB3LYP) =  -543.668812483     A.U. after   10 cycles
 SCF Done:  E(RB3LYP) =  -543.668811067     A.U. after    9 cycles
 SCF Done:  E(RB3LYP) =  -543.668777121     A.U. after   10 cycles
 SCF Done:  E(RB3LYP) =  -543.668818928     A.U. after    9 cycles
 SCF Done:  E(RB3LYP) =  -543.668820825     A.U. after    7 cycles
 SCF Done:  E(RB3LYP) =  -543.668820922     A.U. after    6 cycles
 Optimization completed.
    -- Stationary point found.
 Normal termination of Gaussian 16 at Sat Feb  5 08:48:34 2022.

 ----------------------------------------------------------------------
 #N Geom=AllCheck Guess=TCheck SCRF=Check GenChk RB3LYP/6-31G(d,p) Freq
 ----------------------------------------------------------------------

 Structure from the checkpoint file:  "Ac1_clust-40.chk"
 -------
 Ac1.xyz
 -------
 Charge =  0 Multiplicity = 1

 SCF Done:  E(RB3LYP) =  -543.668820922     A.U. after    1 cycles

                      1                      2                      3
                      A                      A                      A
 Frequencies --     20.0297                34.4602                39.7488
 Red. masses --      7.9406                 4.0070                 1.9459
 Frc consts  --      0.0019                 0.0028                 0.0018
 IR Inten    --      1.1090                 0.0559                 0.0286

                      4                      5                      6
                      A                      A                      A
 Frequencies --     56.8752                84.3744                97.2727
 Red. masses --      2.0053                 2.8688                 2.8211
 Frc consts  --      0.0038                 0.0120                 0.0157
 IR Inten    --      0.0747                 0.2809                 0.2836

                      7                      8                      9
                      A                      A                      A
 Frequencies --    117.3007               130.8644               138.1089
 Red. masses --      2.1624                 2.4472                 2.0299
 Frc consts  --      0.0175                 0.0247                 0.0228
 IR Inten    --      0.4153                 0.3309                 0.0670

                     10                     11                     12
                      A                      A                      A
 Frequencies --    153.6596               229.2365               251.9686
 Red. masses --      3.1228                 2.1844                 1.1361
 Frc consts  --      0.0434                 0.0676                 0.0425
 IR Inten    --      0.1760                 0.5842                 0.0306

                     13                     14                     15
                      A                      A                      A
 Frequencies --    264.7210               313.1884               373.0397
 Red. masses --      4.3632                 3.0231                 3.4096
 Frc consts  --      0.1801                 0.1747                 0.2796
 IR Inten    --      0.7257                 1.0901                 2.9807

                     16                     17                     18
                      A                      A                      A
 Frequencies --    410.3765               477.1201               519.5274
 Red. masses --      3.2674                 3.2905                 1.6033
 Frc consts  --      0.3242                 0.4413                 0.2550
 IR Inten    --      0.5007                 7.6823                20.1854

                     19                     20                     21
                      A                      A                      A
 Frequencies --    541.8173               635.5027               671.6582
 Red. masses --      2.7790                 4.2095                 1.3069
 Frc consts  --      0.4807                 1.0016                 0.3474
 IR Inten    --     17.0219                28.3994                90.7299

                     22                     23                     24
                      A                      A                      A
 Frequencies --    733.6326               741.0274               758.8024
 Red. masses --      1.1062                 1.0913                 1.1772
 Frc consts  --      0.3508                 0.3531                 0.3993
 IR Inten    --      8.9464                 3.7441                 2.7089

                     25                     26                     27
                      A                      A                      A
 Frequencies --    790.4992               839.4301               880.6800
 Red. masses --      1.3127                 1.3480                 2.9377
 Frc consts  --      0.4833                 0.5596                 1.3425
 IR Inten    --      3.1134                 1.7293                 7.5085

                     28                     29                     30
                      A                      A                      A
 Frequencies --    895.6547               905.1499               941.8912
 Red. masses --      1.9359                 1.6950                 1.7045
 Frc consts  --      0.9150                 0.8182                 0.8909
 IR Inten    --      3.3343                 0.1550                 1.4383

                     31                     32                     33
                      A                      A                      A
 Frequencies --    981.8012              1019.4945              1035.6720
 Red. masses --      1.5140                 2.1763                 2.3314
 Frc consts  --      0.8598                 1.3327                 1.4734
 IR Inten    --      1.4103                 1.2235                 1.0344

                     34                     35                     36
                      A                      A                      A
 Frequencies --   1049.7649              1071.4078              1073.7470
 Red. masses --      2.8110                 2.1658                 2.1822
 Frc consts  --      1.8251                 1.4648                 1.4823
 IR Inten    --     13.0296                 0.4103                 1.2375

                     37                     38                     39
                      A                      A                      A
 Frequencies --   1091.9957              1093.8293              1139.8759
 Red. masses --      2.0091                 2.1861                 2.0152
 Frc consts  --      1.4115                 1.5410                 1.5427
 IR Inten    --      5.3288                 5.7034                38.3820

                     40                     41                     42
                      A                      A                      A
 Frequencies --   1141.8398              1166.5428              1201.4117
 Red. masses --      1.5797                 2.3990                 1.7847
 Frc consts  --      1.2135                 1.9235                 1.5178
 IR Inten    --     45.6001               171.9585                10.7852

                     43                     44                     45
                      A                      A                      A
 Frequencies --   1238.8114              1262.9427              1271.2686
 Red. masses --      1.5058                 1.3501                 1.3371
 Frc consts  --      1.3616                 1.2687                 1.2731
 IR Inten    --      5.2016                12.9132                 3.6070

                     46                     47                     48
                      A                      A                      A
 Frequencies --   1289.9159              1305.9034              1322.9556
 Red. masses --      1.2900                 1.3016                 1.3047
 Frc consts  --      1.2646                 1.3079                 1.3454
 IR Inten    --      0.6250                 0.6855                 0.9956

                     49                     50                     51
                      A                      A                      A
 Frequencies --   1332.0708              1335.7796              1339.6408
 Red. masses --      1.1450                 1.1120                 1.0681
 Frc consts  --      1.1971                 1.1690                 1.1294
 IR Inten    --      0.9051                 1.3293                 0.1463

                     52                     53                     54
                      A                      A                      A
 Frequencies --   1344.1176              1359.3922              1378.5753
 Red. masses --      1.1690                 1.2654                 1.5730
 Frc consts  --      1.2443                 1.3777                 1.7614
 IR Inten    --      1.2574                 1.0477                35.6745

                     55                     56                     57
                      A                      A                      A
 Frequencies --   1405.8454              1417.9462              1419.5467
 Red. masses --      1.4980                 1.6656                 1.6112
 Frc consts  --      1.7444                 1.9731                 1.9130
 IR Inten    --      4.1395                 4.8321                 1.0613

                     58                     59                     60
                      A                      A                      A
 Frequencies --   1428.4430              1434.2806              1473.3548
 Red. masses --      1.2715                 2.0965                 1.0880
 Frc consts  --      1.5286                 2.5410                 1.3915
 IR Inten    --      2.6660                56.5439                13.8164

                     61                     62                     63
                      A                      A                      A
 Frequencies --   1496.8246              1499.4469              1500.6388
 Red. masses --      1.0761                 1.0764                 1.0716
 Frc consts  --      1.4205                 1.4259                 1.4218
 IR Inten    --      1.5437                 0.2247                 0.1706

                     64                     65                     66
                      A                      A                      A
 Frequencies --   1504.2085              1507.2292              1514.3672
 Red. masses --      1.0878                 1.0768                 1.0401
 Frc consts  --      1.4501                 1.4413                 1.4053
 IR Inten    --      0.9293                 0.4157                 5.4597

                     67                     68                     69
                      A                      A                      A
 Frequencies --   1518.2811              1521.8914              1527.4658
 Red. masses --      1.0832                 1.0977                 1.0917
 Frc consts  --      1.4711                 1.4979                 1.5007
 IR Inten    --      0.1192                 4.7255                 3.1549

                     70                     71                     72
                      A                      A                      A
 Frequencies --   1845.6188              3011.0631              3011.3809
 Red. masses --      9.8021                 1.0588                 1.0599
 Frc consts  --     19.6722                 5.6557                 5.6628
 IR Inten    --    243.2927                 1.4671                 0.8721

                     73                     74                     75
                      A                      A                      A
 Frequencies --   3015.7486              3020.4774              3021.7609
 Red. masses --      1.0643                 1.0621                 1.0619
 Frc consts  --      5.7031                 5.7090                 5.7130
 IR Inten    --      2.2147                 9.3908                41.0429

                     76                     77                     78
                      A                      A                      A
 Frequencies --   3027.3274              3036.9576              3037.9722
 Red. masses --      1.0619                 1.0976                 1.0361
 Frc consts  --      5.7337                 5.9645                 5.6342
 IR Inten    --     91.7312                 2.2696                44.3994

                     79                     80                     81
                      A                      A                      A
 Frequencies --   3043.1159              3044.9876              3048.1906
 Red. masses --      1.0613                 1.1004                 1.0949
 Frc consts  --      5.7906                 6.0114                 5.9939
 IR Inten    --      4.6268                 0.5433                 7.4350

                     82                     83                     84
                      A                      A                      A
 Frequencies --   3054.6560              3060.6458              3066.7540
 Red. masses --      1.0620                 1.1025                 1.1018
 Frc consts  --      5.8382                 6.0850                 6.1055
 IR Inten    --     30.6944                 5.6537                39.0425

                     85                     86                     87
                      A                      A                      A
 Frequencies --   3074.4440              3077.4463              3099.9816
 Red. masses --      1.1017                 1.1041                 1.1044
 Frc consts  --      6.1353                 6.1609                 6.2532
 IR Inten    --     10.0756               115.6599                59.0847

                     88                     89                     90
                      A                      A                      A
 Frequencies --   3106.2602              3112.1162              3753.1344
 Red. masses --      1.1028                 1.1020                 1.0641
 Frc consts  --      6.2691                 6.2882                 8.8311
 IR Inten    --     65.7794                41.7829                45.6884

 - Thermochemistry -
 -------------------
 Temperature   298.150 Kelvin.  Pressure   1.00000 Atm.
 Atom     1 has atomic number  8 and mass  15.99491

 Molecular mass:   172.14633 amu.
 Principal axes and moments of inertia in atomic units:
                           1         2         3
     Eigenvalues --   701.125949148.490819616.90001
           X            0.99999  -0.00493  -0.00175
           Y            0.00495   0.99992   0.01131
           Z            0.00169  -0.01132   0.99993
 This molecule is an asymmetric top.
 Rotational symmetry number  1.
 Warning -- assumption of classical behavior for rotation
           may cause significant error
 Rotational temperatures (Kelvin)      0.12354     0.00947     0.00901
 Rotational constants (GHZ):           2.57406     0.19727     0.18766
 Zero-point vibrational energy     763433.9 (Joules/Mol)
                                  182.46509 (Kcal/Mol)
 Warning -- explicit consideration of  19 degrees of freedom as
           vibrations may cause significant error
 Vibrational temperatures:     28.82    49.58    57.19    81.83   121.40
          (Kelvin)            139.95   168.77   188.28   198.71   221.08
                              329.82   362.53   380.87   450.61   536.72
                              590.44   686.47   747.48   779.55   914.35
                              966.37  1055.53  1066.17  1091.75  1137.35
                             1207.75  1267.10  1288.65  1302.31  1355.17
                             1412.59  1466.83  1490.10  1510.38  1541.52
                             1544.88  1571.14  1573.78  1640.03  1642.85
                             1678.39  1728.56  1782.37  1817.09  1829.07
                             1855.90  1878.90  1903.44  1916.55  1921.89
                             1927.44  1933.89  1955.86  1983.46  2022.70
                             2040.11  2042.41  2055.21  2063.61  2119.83
                             2153.60  2157.37  2159.08  2164.22  2168.57
                             2178.84  2184.47  2189.66  2197.68  2655.43
                             4332.25  4332.71  4338.99  4345.79  4347.64
                             4355.65  4369.50  4370.96  4378.37  4381.06
                             4385.67  4394.97  4403.59  4412.38  4423.44
                             4427.76  4460.18  4469.22  4477.64  5399.92

 Zero-point correction=                           0.290777 (Hartree/Particle)
 Thermal correction to Energy=                    0.305839
 Thermal correction to Enthalpy=                  0.306783
 Thermal correction to Gibbs Free Energy=         0.245538
 Sum of electronic and zero-point Energies=           -543.378044
 Sum of electronic and thermal Energies=              -543.362982
 Sum of electronic and thermal Enthalpies=            -543.362038
 Sum of electronic and thermal Free Energies=         -543.423283

                     E (Thermal)             CV                S
                      KCal/Mol        Cal/Mol-Kelvin    Cal/Mol-Kelvin
 Total                  191.917             52.838            128.902
 Electronic               0.000              0.000              0.000
 Translational            0.889              2.981             41.337
 Rotational               0.889              2.981             32.489
 Vibrational            190.139             46.876             55.075
 Vibration     1          0.593              1.986              6.631
 Vibration     2          0.594              1.983              5.555
 Vibration     3          0.594              1.981              5.272
 Vibration     4          0.596              1.975              4.563
 Vibration     5          0.601              1.960              3.786
 Vibration     6          0.603              1.951              3.508
 Vibration     7          0.608              1.935              3.144
 Vibration     8          0.612              1.922              2.933
 Vibration     9          0.614              1.915              2.830
 Vibration    10          0.619              1.899              2.626
 Vibration    11          0.652              1.796              1.885
 Vibration    12          0.664              1.759              1.717
 Vibration    13          0.671              1.738              1.630
 Vibration    14          0.701              1.649              1.345
 Vibration    15          0.744              1.527              1.067
 Vibration    16          0.775              1.448              0.925
 Vibration    17          0.834              1.301              0.718
 Vibration    18          0.875              1.207              0.611
 Vibration    19          0.897              1.158              0.561

                           ! Non-Optimized Parameters !
 Normal termination of Gaussian 16 at Sat Feb  5 08:49:49 2022.

 ----------------------------------------------------------------------
 # M062X/def2tzvp int=(grid=ultrafine) pop=nbo7 polar prop=efg volume g
 uess=read geom=check
 ----------------------------------------------------------------------

 -------
 Ac1.xyz
 -------
 Structure from the checkpoint file:  "Ac1_clust-40.chk"
 Charge =  0 Multiplicity = 1

 SCF Done:  E(RM062X) =  -543.544028247     A.U. after   11 cycles

  Exact polarizability:     159.850      -1.309     117.607       2.257      -2.915     104.747
 Approx polarizability:     145.720      -0.802     148.091       2.352      -5.791     140.223

 Summary of Natural Population Analysis:

                                     Natural Population
             Natural    ---------------------------------------------
  Atom No    Charge        Core      Valence    Rydberg      Total
 --------------------------------------------------------------------
    O  1   -0.68824      2.00000     6.66638    0.02186     8.68824
    C  2    0.79785      1.99999     3.16625    0.03592     5.20215
    C  3   -0.50899      1.99999     4.49629    0.01270     6.50899
    C  4   -0.38933      1.99999     4.37683    0.01251     6.38933
    C  5   -0.39466      1.99999     4.38372    0.01095     6.39466
    C  6   -0.38589      1.99999     4.37500    0.01090     6.38589
    C  7   -0.38616      1.99999     4.37536    0.01080     6.38616
    C  8   -0.39361      1.99999     4.38252    0.01110     6.39361
    C  9   -0.38758      1.99999     4.37628    0.01130     6.38758
    C 10   -0.38989      1.99999     4.37977    0.01013     6.38989
    C 11   -0.60094      1.99999     4.59244    0.00851     6.60094
    O 12   -0.59603      2.00000     6.56988    0.02615     8.59603
    H 13    0.49266      0.00000     0.50394    0.00340     0.50734
    H 14    0.23253      0.00000     0.76598    0.00149     0.76747
    H 15    0.23250      0.00000     0.76601    0.00149     0.76750
    H 16    0.21075      0.00000     0.78752    0.00173     0.78925
    H 17    0.21007      0.00000     0.78816    0.00176     0.78993
    H 18    0.19301      0.00000     0.80506    0.00193     0.80699
    H 19    0.19503      0.00000     0.80317    0.00180     0.80497
    H 20    0.19466      0.00000     0.80343    0.00192     0.80534
    H 21    0.20129      0.00000     0.79705    0.00165     0.79871
    H 22    0.20062      0.00000     0.79773    0.00165     0.79938
    H 23    0.19260      0.00000     0.80549    0.00192     0.80740
    H 24    0.19340      0.00000     0.80462    0.00198     0.80660
    H 25    0.19357      0.00000     0.80456    0.00186     0.80643
    H 26    0.19246      0.00000     0.80555    0.00199     0.80754
    H 27    0.19268      0.00000     0.80536    0.00195     0.80732
    H 28    0.19318      0.00000     0.80503    0.00179     0.80682
    H 29    0.19364      0.00000     0.80457    0.00179     0.80636
    H 30    0.20045      0.00000     0.79829    0.00126     0.79955
    H 31    0.20026      0.00000     0.79848    0.00126     0.79974
    H 32    0.20811      0.00000     0.79094    0.00096     0.79189
 ====================================================================
 * Total *  0.00000     23.99992    71.78165    0.21843    96.00000

 1\1\GINC-NOTCH076\SP\RM062X\def2TZVP\C10H20O2\U6032257\05-Feb-2022\0\\
 # M062X/def2tzvp int=(grid=ultrafine) pop=nbo7 polar prop=efg volume g
 uess=read geom=check\\Ac1.xyz\\0,1\O,0,6.47088341,0.4928661822,0.51940
 88085\C,0,5.4247526422,-0.3622969663,0.648755004\C,0,4.7395120232,-0.6
 044039983,-0.6753217548\C,0,3.5553791061,-1.5622940748,-0.5706280325\C
 ,0,2.8710483477,-1.7990215382,-1.9185575892\C,0,1.6849419839,-2.763755
 8903,-1.8188211845\C,0,0.9184947311,-2.9634302421,-3.1327020011\C,0,1.
 733014237,-3.62580381,-4.2487561751\C,0,0.9132362687,-3.8930864785,-5.

 Normal termination of Gaussian 16 at Sat Feb  5 08:52:46 2022.
 Gaussian 16:  ES64L-G16RevC.01  3-Jul-2019

 --------------------------------------------------------------------
 # M062X/def2tzvp int=(grid=ultrafine) nmr=giao guess=read geom=check
 --------------------------------------------------------------------

 -------
 Ac1.xyz
 -------
 Structure from the checkpoint file:  "Ac1_clust-40.chk"
 Charge =  0 Multiplicity = 1

                         Standard orientation:
 ---------------------------------------------------------------------
 Center     Atomic      Atomic             Coordinates (Angstroms)
 Number     Number       Type             X           Y           Z
 ---------------------------------------------------------------------
      1          8           0       -5.226269   -1.484143    0.273132
      2          6           0       -4.461898   -0.423284   -0.091202
      3          6           0       -3.018424   -0.616309    0.309389
      4          6           0       -2.125594    0.558077   -0.083493
      5          6           0       -0.666581    0.349303    0.327551
      6          6           0        0.233971    1.523624   -0.069291
      7          6           0        1.689103    1.392451    0.398661
      8          6           0        2.454124    0.221220   -0.226415
      9          6           0        3.926195    0.173556    0.191039
     10          6           0        4.696990   -0.998029   -0.423726
     11          6           0        6.167248   -1.035598   -0.002094
     12          8           0       -4.920532    0.539516   -0.665425
     13          1           0       -6.128910   -1.275492   -0.021038
     14          1           0       -2.669515   -1.552703   -0.144312
     15          1           0       -2.994079   -0.791783    1.392451
     16          1           0       -2.191333    0.712104   -1.166631
     17          1           0       -2.516697    1.474992    0.371943
     18          1           0       -0.608543    0.200997    1.415517
     19          1           0       -0.293458   -0.578195   -0.125296
     20          1           0        0.212848    1.640473   -1.161776
     21          1           0       -0.191405    2.448051    0.342681
     22          1           0        2.220901    2.324606    0.166925
     23          1           0        1.710813    1.295437    1.493330
     24          1           0        2.388447    0.290240   -1.321692
     25          1           0        1.975759   -0.727984    0.047037
     26          1           0        4.415014    1.116994   -0.090275
     27          1           0        3.991499    0.114957    1.286780
     28          1           0        4.208504   -1.939851   -0.139864
     29          1           0        4.629281   -0.939574   -1.518314
     30          1           0        6.686885   -0.118977   -0.302882
     31          1           0        6.263008   -1.125963    1.085753
     32          1           0        6.694578   -1.881384   -0.454503
 ---------------------------------------------------------------------

 SCF Done:  E(RM062X) =  -543.544028247     A.U. after    1 cycles

      1  O    Isotropic =   105.7874   Anisotropy =   243.6306

      2  C    Isotropic =    -9.0471   Anisotropy =   123.0081

      3  C    Isotropic =   148.9297   Anisotropy =    50.6570

      4  C    Isotropic =   157.6543   Anisotropy =    29.0999

      5  C    Isotropic =   154.1628   Anisotropy =    27.9367

      6  C    Isotropic =   152.0582   Anisotropy =    25.6631

      7  C    Isotropic =   151.9858   Anisotropy =    25.5091

      8  C    Isotropic =   152.3257   Anisotropy =    30.5735

      9  C    Isotropic =   148.1855   Anisotropy =    39.7060

     10  C    Isotropic =   158.4004   Anisotropy =    24.3366

     11  C    Isotropic =   169.9970   Anisotropy =    28.4410

     12  O    Isotropic =  -165.8360   Anisotropy =   653.4728

     13  H    Isotropic =    25.7446   Anisotropy =    11.7774

     14  H    Isotropic =    29.6036   Anisotropy =     5.9955

     15  H    Isotropic =    29.6162   Anisotropy =     6.2029

     16  H    Isotropic =    30.3678   Anisotropy =     5.8553

     17  H    Isotropic =    30.3559   Anisotropy =     6.1603

     18  H    Isotropic =    31.0774   Anisotropy =     5.1522

     19  H    Isotropic =    30.4966   Anisotropy =     6.6083

     20  H    Isotropic =    30.6593   Anisotropy =     5.7412

     21  H    Isotropic =    30.3965   Anisotropy =     7.3642

     22  H    Isotropic =    30.4323   Anisotropy =     7.2825

     23  H    Isotropic =    30.7172   Anisotropy =     5.6562

     24  H    Isotropic =    30.9828   Anisotropy =     4.7720

     25  H    Isotropic =    30.4465   Anisotropy =     6.4379

     26  H    Isotropic =    30.7396   Anisotropy =     5.0988

     27  H    Isotropic =    30.7661   Anisotropy =     4.7859

     28  H    Isotropic =    30.6313   Anisotropy =     6.4433

     29  H    Isotropic =    30.6274   Anisotropy =     6.5178

     30  H    Isotropic =    31.0443   Anisotropy =     8.6637

     31  H    Isotropic =    31.0381   Anisotropy =     8.5215

     32  H    Isotropic =    30.7521   Anisotropy =    10.9247

 The electronic state is 1-A.
 Alpha  occ. eigenvalues --  -19.67465 -19.62154 -10.67957 -10.55518 -10.53682
 Alpha  occ. eigenvalues --  -10.53371 -10.53044 -10.52915 -10.52894 -10.52793
 Alpha  occ. eigenvalues --  -10.52736 -10.52182  -1.23535  -1.14027  -0.92015
 Alpha  occ. eigenvalues --   -0.90165  -0.87209  -0.83036  -0.78471  -0.73208
 Alpha  occ. eigenvalues --   -0.69732  -0.66147  -0.65943  -0.64861  -0.58222
 Alpha  occ. eigenvalues --   -0.57196  -0.56866  -0.54914  -0.53414  -0.50993
 Alpha  occ. eigenvalues --   -0.50345  -0.48960  -0.48234  -0.47352  -0.46365
 Alpha  occ. eigenvalues --   -0.45262  -0.43367  -0.42894  -0.41103  -0.40690
 Alpha  occ. eigenvalues --   -0.40169  -0.39594  -0.39103  -0.38342  -0.37974
 Alpha  occ. eigenvalues --   -0.37317  -0.36249  -0.35836
 Alpha virt. eigenvalues --    0.04574   0.05823   0.06600   0.07282   0.08211
 Alpha virt. eigenvalues --    0.08914   0.09149   0.10664   0.11356   0.12170
 Alpha virt. eigenvalues --    0.13269   0.14034   0.14512   0.15163   0.15290

 Mulliken charges:
               1
     1  O   -0.411650
     2  C    0.353789
     3  C   -0.326939
     4  C   -0.282319
     5  C   -0.297635
     6  C   -0.275789
     7  C   -0.274218
     8  C   -0.299040
     9  C   -0.278450
    10  C   -0.235364
    11  C   -0.427550
    12  O   -0.333171
    13  H    0.335442
    14  H    0.169596
    15  H    0.169479
    16  H    0.155278
    17  H    0.155858
    18  H    0.141737
    19  H    0.144914
    20  H    0.151513
    21  H    0.146263
    22  H    0.144690
    23  H    0.148213
    24  H    0.141031
    25  H    0.141223
    26  H    0.136188
    27  H    0.135023
    28  H    0.128671
    29  H    0.129413
    30  H    0.136204
    31  H    0.136070
    32  H    0.141529
 Sum of Mulliken charges =  -0.00000

 Dipole moment (field-independent basis, Debye):
    X=              0.8483    Y=             -1.1292    Z=              0.7032  Tot=              1.5777
 Quadrupole moment (field-independent basis, Debye-Ang):
   XX=            -79.9810   YY=            -79.5690   ZZ=            -77.6537
   XY=              6.9876   XZ=             -3.9270   YZ=              1.9071

 1\1\GINC-NOTCH076\SP\RM062X\def2TZVP\C10H20O2\U6032257\05-Feb-2022\0\\
 # M062X/def2tzvp int=(grid=ultrafine) nmr=giao guess=read geom=check\\
 Ac1.xyz\\0,1\O,0,6.47088341,0.4928661822,0.5194088085\C,0,5.4247526422
 ,-0.3622969663,0.648755004\C,0,4.7395120232,-0.6044039983,-0.675321754
 8\C,0,3.5553791061,-1.5622940748,-0.5706280325\C,0,2.8710483477,-1.799
 0215382,-1.9185575892\C,0,1.6849419839,-2.7637558903,-1.8188211845\C,0
 ,0.9184947311,-2.9634302421,-3.1327020011\C,0,1.733014237,-3.62580381,
 -4.2487561751\C,0,0.9132362687,-3.8930864785,-5.5136896341\C,0,1.72118

 Normal termination of Gaussian 16 at Sat Feb  5 08:54:00 2022.
