 Gaussian 16, Revision C.01,

 ----------------------------------------------------------------------
 # B3LYP/6-31G(d,p) empiricaldispersion=GD3BJ int=(grid=ultrafine) opt
 freq=noraman
 ----------------------------------------------------------------------

 -------
 Ac1.xyz
 -------
 Symbolic Z-matrix:
 Charge =  0 Multiplicity = 1

 SCF Done:  E(RB3LYP) =  -543.665637614     A.U. after   13 cycles
 SCF Done:  E(RB3LYP) =  -543.668215035     A.U. after   12 cycles
 SCF Done:  E(RB3LYP) =  -543.667562116     A.U. after   11 cycles
 SCF Done:  E(RB3LYP) =  -543.668549351     A.U. after   11 cycles
 SCF Done:  E(RB3LYP) =  -543.668599986     A.U. after   11 cycles
 SCF Done:  E(RB3LYP) =  -543.668637779     A.U. after   11 cycles
 SCF Done:  E(RB3LYP) =  -543.668655870     A.U. after   11 cycles
 SCF Done:  E(RB3LYP) =  -543.668662563     A.U. after   10 cycles
 SCF Done:  E(RB3LYP) =  -543.668663798     A.U. after    8 cycles
 SCF Done:  E(RB3LYP) =  -543.668663890     A.U. after    7 cycles
 SCF Done:  E(RB3LYP) =  -543.668663900     A.U. after    7 cycles
 SCF Done:  E(RB3LYP) =  -543.668663911     A.U. after    6 cycles
 Optimization completed.
    -- Stationary point found.
 Normal termination of Gaussian 16 at Thu Feb  3 09:06:29 2022.

 ----------------------------------------------------------------------
 #N Geom=AllCheck Guess=TCheck SCRF=Check GenChk RB3LYP/6-31G(d,p) Freq
 ----------------------------------------------------------------------

 Structure from the checkpoint file:  "Ac1_clust-28.chk"
 -------
 Ac1.xyz
 -------
 Charge =  0 Multiplicity = 1

 SCF Done:  E(RB3LYP) =  -543.668663911     A.U. after    1 cycles

                      1                      2                      3
                      A                      A                      A
 Frequencies --     19.9879                30.0315                34.1455
 Red. masses --      4.8419                 4.9626                 3.6769
 Frc consts  --      0.0011                 0.0026                 0.0025
 IR Inten    --      0.3939                 0.7910                 0.6691

                      4                      5                      6
                      A                      A                      A
 Frequencies --     63.1525                69.1001               114.8843
 Red. masses --      1.8209                 3.8973                 2.3980
 Frc consts  --      0.0043                 0.0110                 0.0186
 IR Inten    --      0.0471                 0.6690                 0.1295

                      7                      8                      9
                      A                      A                      A
 Frequencies --    121.6555               151.7871               166.4468
 Red. masses --      2.3338                 3.0125                 2.5192
 Frc consts  --      0.0204                 0.0409                 0.0411
 IR Inten    --      0.3238                 0.2591                 0.0017

                     10                     11                     12
                      A                      A                      A
 Frequencies --    212.0181               233.1116               252.2186
 Red. masses --      2.0710                 2.1539                 1.2148
 Frc consts  --      0.0549                 0.0690                 0.0455
 IR Inten    --      0.0240                 0.1852                 0.0287

                     13                     14                     15
                      A                      A                      A
 Frequencies --    285.9740               335.9777               403.5666
 Red. masses --      3.1943                 2.2527                 2.6186
 Frc consts  --      0.1539                 0.1498                 0.2513
 IR Inten    --      0.0809                 0.3087                 0.0261

                     16                     17                     18
                      A                      A                      A
 Frequencies --    434.4821               475.8892               500.2508
 Red. masses --      2.3218                 2.5799                 2.8928
 Frc consts  --      0.2582                 0.3442                 0.4265
 IR Inten    --      3.8197                 0.9977                 0.1287

                     19                     20                     21
                      A                      A                      A
 Frequencies --    565.4773               634.2445               729.4652
 Red. masses --      3.4489                 1.3327                 1.3247
 Frc consts  --      0.6498                 0.3159                 0.4153
 IR Inten    --     41.2546                70.5046                12.2300

                     22                     23                     24
                      A                      A                      A
 Frequencies --    738.0524               747.8711               777.1354
 Red. masses --      1.5102                 1.2471                 1.4861
 Frc consts  --      0.4847                 0.4110                 0.5288
 IR Inten    --     20.2575                23.1362                 8.8415

                     25                     26                     27
                      A                      A                      A
 Frequencies --    795.5958               844.2928               868.8125
 Red. masses --      1.3203                 1.8299                 2.7517
 Frc consts  --      0.4924                 0.7685                 1.2238
 IR Inten    --      0.7878                 2.2714                 3.6683

                     28                     29                     30
                      A                      A                      A
 Frequencies --    900.8030               906.7942               938.4577
 Red. masses --      1.7454                 1.7529                 2.1385
 Frc consts  --      0.8345                 0.8492                 1.1096
 IR Inten    --      1.4186                 2.7248                 0.2326

                     31                     32                     33
                      A                      A                      A
 Frequencies --    964.1466               977.7329              1017.1783
 Red. masses --      1.6270                 1.9634                 1.8074
 Frc consts  --      0.8911                 1.1059                 1.1018
 IR Inten    --     15.2701                 1.5241                 2.4500

                     34                     35                     36
                      A                      A                      A
 Frequencies --   1054.6773              1061.5000              1079.3348
 Red. masses --      2.0488                 2.2492                 1.9124
 Frc consts  --      1.3427                 1.4932                 1.3126
 IR Inten    --     15.8417                20.6163                 0.9512

                     37                     38                     39
                      A                      A                      A
 Frequencies --   1083.8718              1094.2771              1125.2746
 Red. masses --      2.0800                 2.1094                 1.5276
 Frc consts  --      1.4397                 1.4882                 1.1397
 IR Inten    --      8.6851                 3.4944                65.6624

                     40                     41                     42
                      A                      A                      A
 Frequencies --   1140.3122              1173.0339              1206.2398
 Red. masses --      1.8504                 1.9016                 1.7128
 Frc consts  --      1.4176                 1.5416                 1.4683
 IR Inten    --      3.0483                38.7292                15.6588

                     43                     44                     45
                      A                      A                      A
 Frequencies --   1237.6471              1256.1136              1269.2342
 Red. masses --      1.4716                 1.3964                 1.3465
 Frc consts  --      1.3281                 1.2982                 1.2781
 IR Inten    --     86.2461                11.3663                 3.8464

                     46                     47                     48
                      A                      A                      A
 Frequencies --   1298.1401              1302.5821              1325.2724
 Red. masses --      1.3172                 1.3087                 1.2582
 Frc consts  --      1.3078                 1.3083                 1.3020
 IR Inten    --      0.8470                 0.6938                 5.1771

                     49                     50                     51
                      A                      A                      A
 Frequencies --   1331.7280              1340.4079              1347.7701
 Red. masses --      1.1963                 1.0816                 1.2836
 Frc consts  --      1.2501                 1.1450                 1.3738
 IR Inten    --      2.7741                 2.3935                10.5176

                     52                     53                     54
                      A                      A                      A
 Frequencies --   1355.9238              1370.9464              1385.2379
 Red. masses --      1.1283                 1.6067                 1.4111
 Frc consts  --      1.2222                 1.7792                 1.5954
 IR Inten    --      5.3384                28.7600                 0.8741

                     55                     56                     57
                      A                      A                      A
 Frequencies --   1394.5294              1410.9825              1419.1194
 Red. masses --      1.3885                 1.8067                 1.6025
 Frc consts  --      1.5909                 2.1193                 1.9014
 IR Inten    --      1.8792                23.8653                 6.7536

                     58                     59                     60
                      A                      A                      A
 Frequencies --   1424.9606              1428.1781              1490.6493
 Red. masses --      1.5608                 1.2558                 1.0859
 Frc consts  --      1.8672                 1.5091                 1.4217
 IR Inten    --      4.9356                 1.3485                 5.1624

                     61                     62                     63
                      A                      A                      A
 Frequencies --   1496.9359              1500.7021              1503.0721
 Red. masses --      1.0782                 1.0746                 1.0816
 Frc consts  --      1.4235                 1.4259                 1.4397
 IR Inten    --      0.9766                 0.6359                 1.8648

                     64                     65                     66
                      A                      A                      A
 Frequencies --   1505.3063              1507.4939              1514.0397
 Red. masses --      1.0966                 1.0920                 1.0423
 Frc consts  --      1.4640                 1.4621                 1.4078
 IR Inten    --     10.1188                 1.2734                 4.9342

                     67                     68                     69
                      A                      A                      A
 Frequencies --   1514.3424              1522.0318              1526.4115
 Red. masses --      1.0731                 1.0977                 1.0881
 Frc consts  --      1.4499                 1.4982                 1.4938
 IR Inten    --      0.7695                 0.8483                 3.6641

                     70                     71                     72
                      A                      A                      A
 Frequencies --   1841.3903              3009.8156              3013.5688
 Red. masses --      9.4593                 1.0630                 1.0655
 Frc consts  --     18.8973                 5.6739                 5.7012
 IR Inten    --    250.6058                 2.0483                10.1768

                     73                     74                     75
                      A                      A                      A
 Frequencies --   3016.6058              3018.0655              3026.6318
 Red. masses --      1.0622                 1.0613                 1.0630
 Frc consts  --      5.6952                 5.6954                 5.7374
 IR Inten    --      9.4492                 6.0396                72.4709

                     76                     77                     78
                      A                      A                      A
 Frequencies --   3028.2413              3038.0549              3043.3569
 Red. masses --      1.0623                 1.0371                 1.0720
 Frc consts  --      5.7398                 5.6399                 5.8502
 IR Inten    --     52.0047                35.3024                 9.7706

                     79                     80                     81
                      A                      A                      A
 Frequencies --   3044.1657              3049.3312              3054.8395
 Red. masses --      1.0903                 1.0993                 1.1015
 Frc consts  --      5.9528                 6.0227                 6.0563
 IR Inten    --     18.0403                20.5567                19.4752

                     82                     83                     84
                      A                      A                      A
 Frequencies --   3062.2479              3076.0528              3076.6378
 Red. masses --      1.0931                 1.0647                 1.1034
 Frc consts  --      6.0394                 5.9353                 6.1539
 IR Inten    --     30.3831                23.5828                72.9460

                     85                     86                     87
                      A                      A                      A
 Frequencies --   3091.9830              3100.3171              3107.0398
 Red. masses --      1.1024                 1.0974                 1.1027
 Frc consts  --      6.2098                 6.2147                 6.2717
 IR Inten    --     25.4173                52.6962                62.8517

                     88                     89                     90
                      A                      A                      A
 Frequencies --   3111.1595              3144.9536              3751.5770
 Red. masses --      1.1021                 1.1008                 1.0641
 Frc consts  --      6.2852                 6.4148                 8.8238
 IR Inten    --     46.0813                17.6190                47.4501

 - Thermochemistry -
 -------------------
 Temperature   298.150 Kelvin.  Pressure   1.00000 Atm.
 Atom     1 has atomic number  8 and mass  15.99491

 Molecular mass:   172.14633 amu.
 Principal axes and moments of inertia in atomic units:
                           1         2         3
     Eigenvalues --  1360.483635243.736536114.49196
           X            0.99976   0.02167  -0.00261
           Y           -0.02164   0.99970   0.01146
           Z            0.00286  -0.01140   0.99993
 This molecule is an asymmetric top.
 Rotational symmetry number  1.
 Warning -- assumption of classical behavior for rotation
           may cause significant error
 Rotational temperatures (Kelvin)      0.06366     0.01652     0.01417
 Rotational constants (GHZ):           1.32654     0.34417     0.29516
 Zero-point vibrational energy     765700.1 (Joules/Mol)
                                  183.00671 (Kcal/Mol)
 Warning -- explicit consideration of  19 degrees of freedom as
           vibrations may cause significant error
 Vibrational temperatures:     28.76    43.21    49.13    90.86    99.42
          (Kelvin)            165.29   175.04   218.39   239.48   305.05
                              335.40   362.89   411.45   483.40   580.64
                              625.12   684.70   719.75   813.60   912.54
                             1049.54  1061.89  1076.02  1118.12  1144.68
                             1214.75  1250.03  1296.05  1304.67  1350.23
                             1387.19  1406.74  1463.49  1517.45  1527.26
                             1552.92  1559.45  1574.42  1619.02  1640.65
                             1687.73  1735.51  1780.70  1807.27  1826.14
                             1867.73  1874.13  1906.77  1916.06  1928.55
                             1939.14  1950.87  1972.49  1993.05  2006.42
                             2030.09  2041.80  2050.20  2054.83  2144.71
                             2153.76  2159.18  2162.59  2165.80  2168.95
                             2178.37  2178.80  2189.86  2196.17  2649.35
                             4330.45  4335.85  4340.22  4342.32  4354.65
                             4356.96  4371.08  4378.71  4379.88  4387.31
                             4395.23  4405.89  4425.75  4426.60  4448.67
                             4460.66  4470.34  4476.26  4524.89  5397.68

 Zero-point correction=                           0.291640 (Hartree/Particle)
 Thermal correction to Energy=                    0.306383
 Thermal correction to Enthalpy=                  0.307328
 Thermal correction to Gibbs Free Energy=         0.246917
 Sum of electronic and zero-point Energies=           -543.377024
 Sum of electronic and thermal Energies=              -543.362280
 Sum of electronic and thermal Enthalpies=            -543.361336
 Sum of electronic and thermal Free Energies=         -543.421747

                     E (Thermal)             CV                S
                      KCal/Mol        Cal/Mol-Kelvin    Cal/Mol-Kelvin
 Total                  192.259             52.408            127.146
 Electronic               0.000              0.000              0.000
 Translational            0.889              2.981             41.337
 Rotational               0.889              2.981             32.145
 Vibrational            190.481             46.447             53.664
 Vibration     1          0.593              1.986              6.635
 Vibration     2          0.594              1.984              5.827
 Vibration     3          0.594              1.983              5.573
 Vibration     4          0.597              1.972              4.356
 Vibration     5          0.598              1.969              4.179
 Vibration     6          0.608              1.937              3.185
 Vibration     7          0.609              1.931              3.074
 Vibration     8          0.619              1.901              2.650
 Vibration     9          0.624              1.884              2.475
 Vibration    10          0.643              1.823              2.026
 Vibration    11          0.654              1.790              1.855
 Vibration    12          0.664              1.759              1.715
 Vibration    13          0.684              1.700              1.498
 Vibration    14          0.717              1.604              1.231
 Vibration    15          0.769              1.462              0.950
 Vibration    16          0.795              1.395              0.844
 Vibration    17          0.833              1.304              0.721
 Vibration    18          0.856              1.249              0.657
 Vibration    19          0.921              1.106              0.513

 Optimization completed.
    -- Stationary point found.
 Normal termination of Gaussian 16 at Thu Feb  3 09:07:55 2022.

 ----------------------------------------------------------------------
 # M062X/def2tzvp int=(grid=ultrafine) pop=nbo7 polar prop=efg volume g
 uess=read geom=check
 ----------------------------------------------------------------------

 -------
 Ac1.xyz
 -------
 Structure from the checkpoint file:  "Ac1_clust-28.chk"
 Charge =  0 Multiplicity = 1

 SCF Done:  E(RM062X) =  -543.543272400     A.U. after   11 cycles

  Exact polarizability:     144.156       5.649     122.416       0.009      -1.619     109.682
 Approx polarizability:     149.785       4.401     143.336       0.134      -3.886     142.484

 Summary of Natural Population Analysis:

                                     Natural Population
             Natural    ---------------------------------------------
  Atom No    Charge        Core      Valence    Rydberg      Total
 --------------------------------------------------------------------
    O  1   -0.69403      2.00000     6.67177    0.02226     8.69403
    C  2    0.79731      1.99999     3.16444    0.03826     5.20269
    C  3   -0.51354      1.99999     4.50043    0.01312     6.51354
    C  4   -0.37922      1.99999     4.36873    0.01050     6.37922
    C  5   -0.39579      1.99999     4.38450    0.01129     6.39579
    C  6   -0.40903      1.99999     4.39720    0.01184     6.40903
    C  7   -0.38440      1.99999     4.37352    0.01089     6.38440
    C  8   -0.38593      1.99999     4.37518    0.01075     6.38593
    C  9   -0.39612      1.99999     4.38465    0.01148     6.39612
    C 10   -0.38874      1.99999     4.37863    0.01011     6.38874
    C 11   -0.60094      1.99999     4.59244    0.00850     6.60094
    O 12   -0.59860      2.00000     6.57221    0.02640     8.59860
    H 13    0.49357      0.00000     0.50300    0.00343     0.50643
    H 14    0.23487      0.00000     0.76386    0.00126     0.76513
    H 15    0.22910      0.00000     0.76955    0.00135     0.77090
    H 16    0.20598      0.00000     0.79231    0.00171     0.79402
    H 17    0.21399      0.00000     0.78449    0.00152     0.78601
    H 18    0.20462      0.00000     0.79369    0.00168     0.79538
    H 19    0.19768      0.00000     0.80023    0.00210     0.80232
    H 20    0.21183      0.00000     0.78624    0.00194     0.78817
    H 21    0.19049      0.00000     0.80750    0.00201     0.80951
    H 22    0.19672      0.00000     0.80158    0.00170     0.80328
    H 23    0.19528      0.00000     0.80280    0.00191     0.80472
    H 24    0.19895      0.00000     0.79936    0.00169     0.80105
    H 25    0.19121      0.00000     0.80683    0.00196     0.80879
    H 26    0.19500      0.00000     0.80304    0.00196     0.80500
    H 27    0.19644      0.00000     0.80173    0.00182     0.80356
    H 28    0.19247      0.00000     0.80571    0.00181     0.80753
    H 29    0.19213      0.00000     0.80602    0.00185     0.80787
    H 30    0.20100      0.00000     0.79774    0.00126     0.79900
    H 31    0.20099      0.00000     0.79775    0.00126     0.79901
    H 32    0.20667      0.00000     0.79236    0.00097     0.79333
 ====================================================================
 * Total *  0.00000     23.99992    71.77951    0.22057    96.00000

 1\1\GINC-NOTCH075\SP\RM062X\def2TZVP\C10H20O2\U6032257\03-Feb-2022\0\\
 # M062X/def2tzvp int=(grid=ultrafine) pop=nbo7 polar prop=efg volume g
 uess=read geom=check\\Ac1.xyz\\0,1\O,0,5.4181626124,-0.0550716494,0.10
 79813258\C,0,5.1940827027,-1.0614423692,-0.7753647352\C,0,4.8511677055
 ,-2.3541799412,-0.0772943586\C,0,3.4507785876,-2.2977822146,0.57052304
 12\C,0,2.3293752351,-1.87360371,-0.3873232257\C,0,2.2071274827,-2.7395
 314182,-1.6448660766\C,0,0.9956561872,-2.3633099985,-2.5039014262\C,0,
 0.8129789403,-3.2366675836,-3.751994026\C,0,1.9451140643,-3.1190872022

 Normal termination of Gaussian 16 at Thu Feb  3 09:11:17 2022.
 Gaussian 16:  ES64L-G16RevC.01  3-Jul-2019

 --------------------------------------------------------------------
 # M062X/def2tzvp int=(grid=ultrafine) nmr=giao guess=read geom=check
 --------------------------------------------------------------------

 -------
 Ac1.xyz
 -------
 Structure from the checkpoint file:  "Ac1_clust-28.chk"
 Charge =  0 Multiplicity = 1

                         Standard orientation:
 ---------------------------------------------------------------------
 Center     Atomic      Atomic             Coordinates (Angstroms)
 Number     Number       Type             X           Y           Z
 ---------------------------------------------------------------------
      1          8           0       -3.903556    1.185149   -0.703697
      2          6           0       -2.713696    1.229959   -0.051380
      3          6           0       -2.697761    0.316475    1.149185
      4          6           0       -2.678802   -1.170405    0.733535
      5          6           0       -1.560986   -1.535463   -0.252448
      6          6           0       -0.149734   -1.186796    0.230240
      7          6           0        0.939716   -1.687267   -0.723581
      8          6           0        2.370785   -1.395516   -0.253706
      9          6           0        2.718129    0.094490   -0.170973
     10          6           0        4.177721    0.351570    0.214540
     11          6           0        4.520396    1.840149    0.301197
     12          8           0       -1.787813    1.907197   -0.443073
     13          1           0       -3.806438    1.768262   -1.475434
     14          1           0       -3.586772    0.512353    1.757025
     15          1           0       -1.813934    0.571019    1.735945
     16          1           0       -2.576439   -1.770180    1.645842
     17          1           0       -3.648707   -1.424992    0.293551
     18          1           0       -1.621739   -2.611629   -0.459682
     19          1           0       -1.743290   -1.033504   -1.212290
     20          1           0       -0.067201   -0.100875    0.339698
     21          1           0        0.014634   -1.619927    1.227969
     22          1           0        0.822199   -2.770373   -0.862315
     23          1           0        0.784965   -1.234249   -1.712873
     24          1           0        3.076083   -1.885177   -0.938355
     25          1           0        2.531450   -1.860068    0.729665
     26          1           0        2.508461    0.569397   -1.139902
     27          1           0        2.064683    0.593410    0.555675
     28          1           0        4.386558   -0.130868    1.179025
     29          1           0        4.836320   -0.136374   -0.516615
     30          1           0        4.349470    2.339907   -0.658797
     31          1           0        3.898117    2.344585    1.048793
     32          1           0        5.567910    1.997340    0.577579
 ---------------------------------------------------------------------

 SCF Done:  E(RM062X) =  -543.543272400     A.U. after    1 cycles

      1  O    Isotropic =   104.1398   Anisotropy =   235.4899

      2  C    Isotropic =    -9.0328   Anisotropy =   130.3268

      3  C    Isotropic =   149.9200   Anisotropy =    38.7152

      4  C    Isotropic =   157.4885   Anisotropy =    11.8729

      5  C    Isotropic =   155.2234   Anisotropy =    25.8011

      6  C    Isotropic =   157.1332   Anisotropy =    21.0252

      7  C    Isotropic =   151.9057   Anisotropy =    25.9272

      8  C    Isotropic =   151.6901   Anisotropy =    25.7671

      9  C    Isotropic =   150.9691   Anisotropy =    31.8520

     10  C    Isotropic =   158.2441   Anisotropy =    24.4243

     11  C    Isotropic =   170.2763   Anisotropy =    27.3465

     12  O    Isotropic =  -177.4079   Anisotropy =   625.5156

     13  H    Isotropic =    25.8226   Anisotropy =    11.0656

     14  H    Isotropic =    29.5015   Anisotropy =     7.9694

     15  H    Isotropic =    29.5179   Anisotropy =     4.4816

     16  H    Isotropic =    30.4224   Anisotropy =     8.4713

     17  H    Isotropic =    29.9200   Anisotropy =     9.4993

     18  H    Isotropic =    30.5914   Anisotropy =     7.7137

     19  H    Isotropic =    30.7142   Anisotropy =     5.2860

     20  H    Isotropic =    29.7321   Anisotropy =     6.8806

     21  H    Isotropic =    31.3671   Anisotropy =     5.5145

     22  H    Isotropic =    30.5327   Anisotropy =     7.5159

     23  H    Isotropic =    30.7581   Anisotropy =     5.4331

     24  H    Isotropic =    30.4556   Anisotropy =     7.7084

     25  H    Isotropic =    30.7211   Anisotropy =     5.8782

     26  H    Isotropic =    30.9494   Anisotropy =     4.7125

     27  H    Isotropic =    30.3414   Anisotropy =     6.6061

     28  H    Isotropic =    30.6824   Anisotropy =     6.7861

     29  H    Isotropic =    30.6673   Anisotropy =     7.1802

     30  H    Isotropic =    31.0076   Anisotropy =     8.3566

     31  H    Isotropic =    30.9991   Anisotropy =     7.9893

     32  H    Isotropic =    30.7906   Anisotropy =    11.0824

 The electronic state is 1-A.
 Alpha  occ. eigenvalues --  -19.67621 -19.62187 -10.67954 -10.55338 -10.54585
 Alpha  occ. eigenvalues --  -10.53304 -10.52541 -10.52504 -10.52391 -10.52380
 Alpha  occ. eigenvalues --  -10.52068 -10.51666  -1.23606  -1.14025  -0.92035
 Alpha  occ. eigenvalues --   -0.89860  -0.86603  -0.82577  -0.77861  -0.73374
 Alpha  occ. eigenvalues --   -0.69996  -0.66859  -0.65572  -0.64123  -0.58337
 Alpha  occ. eigenvalues --   -0.57338  -0.55148  -0.53980  -0.52878  -0.51996
 Alpha  occ. eigenvalues --   -0.49540  -0.49251  -0.47953  -0.47106  -0.46453
 Alpha  occ. eigenvalues --   -0.44576  -0.43840  -0.43371  -0.41344  -0.40589
 Alpha  occ. eigenvalues --   -0.39978  -0.39068  -0.38637  -0.38114  -0.37442
 Alpha  occ. eigenvalues --   -0.36525  -0.35931  -0.35429
 Alpha virt. eigenvalues --    0.03975   0.05769   0.07119   0.08015   0.08563
 Alpha virt. eigenvalues --    0.09478   0.09768   0.10766   0.12126   0.12364
 Alpha virt. eigenvalues --    0.13136   0.14017   0.14580   0.15239   0.15368

 Mulliken charges:
               1
     1  O   -0.407547
     2  C    0.337267
     3  C   -0.333574
     4  C   -0.283032
     5  C   -0.307386
     6  C   -0.331266
     7  C   -0.274456
     8  C   -0.269689
     9  C   -0.299688
    10  C   -0.237747
    11  C   -0.423810
    12  O   -0.333123
    13  H    0.335400
    14  H    0.170088
    15  H    0.179280
    16  H    0.153634
    17  H    0.164912
    18  H    0.149323
    19  H    0.165186
    20  H    0.176320
    21  H    0.144838
    22  H    0.140459
    23  H    0.151910
    24  H    0.141329
    25  H    0.143902
    26  H    0.139153
    27  H    0.140166
    28  H    0.127286
    29  H    0.128981
    30  H    0.136249
    31  H    0.136241
    32  H    0.139392
 Sum of Mulliken charges =  -0.00000

 Dipole moment (field-independent basis, Debye):
    X=             -1.1834    Y=             -1.1819    Z=              0.3510  Tot=              1.7090
 Quadrupole moment (field-independent basis, Debye-Ang):
   XX=            -74.2928   YY=            -79.9609   ZZ=            -73.4639
   XY=             -1.3722   XZ=              0.4452   YZ=             -1.2669

 1\1\GINC-NOTCH075\SP\RM062X\def2TZVP\C10H20O2\U6032257\03-Feb-2022\0\\
 # M062X/def2tzvp int=(grid=ultrafine) nmr=giao guess=read geom=check\\
 Ac1.xyz\\0,1\O,0,5.4181626124,-0.0550716494,0.1079813258\C,0,5.1940827
 027,-1.0614423692,-0.7753647352\C,0,4.8511677055,-2.3541799412,-0.0772
 943586\C,0,3.4507785876,-2.2977822146,0.5705230412\C,0,2.3293752351,-1
 .87360371,-0.3873232257\C,0,2.2071274827,-2.7395314182,-1.6448660766\C
 ,0,0.9956561872,-2.3633099985,-2.5039014262\C,0,0.8129789403,-3.236667
 5836,-3.751994026\C,0,1.9451140643,-3.1190872022,-4.7776911341\C,0,1.6

 Normal termination of Gaussian 16 at Thu Feb  3 09:12:41 2022.
