 Gaussian 16, Revision C.01,

 ----------------------------------------------------------------------
 # B3LYP/6-31G(d,p) empiricaldispersion=GD3BJ int=(grid=ultrafine) opt
 freq=noraman
 ----------------------------------------------------------------------

 -------
 Ac1.xyz
 -------
 Symbolic Z-matrix:
 Charge =  0 Multiplicity = 1

 SCF Done:  E(RB3LYP) =  -543.661856708     A.U. after   13 cycles
 SCF Done:  E(RB3LYP) =  -543.664697220     A.U. after   13 cycles
 SCF Done:  E(RB3LYP) =  -543.664270794     A.U. after   11 cycles
 SCF Done:  E(RB3LYP) =  -543.665068437     A.U. after   11 cycles
 SCF Done:  E(RB3LYP) =  -543.665217952     A.U. after   11 cycles
 SCF Done:  E(RB3LYP) =  -543.665279067     A.U. after   11 cycles
 SCF Done:  E(RB3LYP) =  -543.665288744     A.U. after   10 cycles
 SCF Done:  E(RB3LYP) =  -543.665302356     A.U. after    9 cycles
 SCF Done:  E(RB3LYP) =  -543.665307822     A.U. after    9 cycles
 SCF Done:  E(RB3LYP) =  -543.665309278     A.U. after    8 cycles
 SCF Done:  E(RB3LYP) =  -543.665310338     A.U. after    9 cycles
 SCF Done:  E(RB3LYP) =  -543.665310750     A.U. after    8 cycles
 SCF Done:  E(RB3LYP) =  -543.665310915     A.U. after    7 cycles
 SCF Done:  E(RB3LYP) =  -543.665310950     A.U. after    6 cycles
 Optimization completed.
    -- Stationary point found.
 Normal termination of Gaussian 16 at Thu Feb  3 06:57:15 2022.

 ----------------------------------------------------------------------
 #N Geom=AllCheck Guess=TCheck SCRF=Check GenChk RB3LYP/6-31G(d,p) Freq
 ----------------------------------------------------------------------

 Structure from the checkpoint file:  "Ac1_clust-14.chk"
 -------
 Ac1.xyz
 -------
 Charge =  0 Multiplicity = 1

 SCF Done:  E(RB3LYP) =  -543.665310950     A.U. after    1 cycles

                      1                      2                      3
                      A                      A                      A
 Frequencies --     23.1246                39.2943                43.0855
 Red. masses --      7.6200                 3.8312                 4.5403
 Frc consts  --      0.0024                 0.0035                 0.0050
 IR Inten    --      0.8195                 0.1177                 0.2962

                      4                      5                      6
                      A                      A                      A
 Frequencies --     65.0286                73.8917               102.9945
 Red. masses --      3.1776                 2.0845                 2.8605
 Frc consts  --      0.0079                 0.0067                 0.0179
 IR Inten    --      0.0699                 0.0214                 0.0197

                      7                      8                      9
                      A                      A                      A
 Frequencies --    127.4719               188.7377               233.5572
 Red. masses --      3.4295                 2.2122                 2.3798
 Frc consts  --      0.0328                 0.0464                 0.0765
 IR Inten    --      0.1352                 0.0335                 0.3070

                     10                     11                     12
                      A                      A                      A
 Frequencies --    245.5320               262.7802               281.8234
 Red. masses --      1.4154                 1.9293                 2.3386
 Frc consts  --      0.0503                 0.0785                 0.1094
 IR Inten    --      0.0742                 0.0211                 0.2300

                     13                     14                     15
                      A                      A                      A
 Frequencies --    339.2721               357.8806               398.3297
 Red. masses --      2.3323                 1.8723                 2.1171
 Frc consts  --      0.1582                 0.1413                 0.1979
 IR Inten    --      0.6861                 0.1763                 0.3726

                     16                     17                     18
                      A                      A                      A
 Frequencies --    447.1918               476.1928               539.2634
 Red. masses --      2.1411                 2.0072                 2.3645
 Frc consts  --      0.2523                 0.2682                 0.4051
 IR Inten    --      2.6010                 1.3166                 7.2912

                     19                     20                     21
                      A                      A                      A
 Frequencies --    566.8495               622.3495               700.5099
 Red. masses --      3.7275                 1.4236                 1.4795
 Frc consts  --      0.7057                 0.3249                 0.4278
 IR Inten    --     28.6041                65.6301                59.4521

                     22                     23                     24
                      A                      A                      A
 Frequencies --    723.1754               749.1921               771.5021
 Red. masses --      1.6638                 1.5194                 1.6537
 Frc consts  --      0.5127                 0.5025                 0.5799
 IR Inten    --     13.7326                 3.1948                11.8136

                     25                     26                     27
                      A                      A                      A
 Frequencies --    800.2887               822.2426               841.3861
 Red. masses --      1.7476                 2.1115                 2.0658
 Frc consts  --      0.6595                 0.8411                 0.8616
 IR Inten    --      4.0723                 2.1673                 3.7690

                     28                     29                     30
                      A                      A                      A
 Frequencies --    870.5761               902.6461               925.6257
 Red. masses --      2.1399                 1.7734                 1.9590
 Frc consts  --      0.9555                 0.8513                 0.9889
 IR Inten    --      3.6402                 7.5986                 2.2898

                     31                     32                     33
                      A                      A                      A
 Frequencies --    961.7121               994.5940              1003.6991
 Red. masses --      1.4884                 2.0072                 1.7326
 Frc consts  --      0.8111                 1.1699                 1.0284
 IR Inten    --      0.3029                 1.0345                 9.9126

                     34                     35                     36
                      A                      A                      A
 Frequencies --   1043.1174              1060.0104              1061.1181
 Red. masses --      1.8915                 1.8809                 1.6933
 Frc consts  --      1.2126                 1.2452                 1.1233
 IR Inten    --      0.3877                27.0866                 2.9978

                     37                     38                     39
                      A                      A                      A
 Frequencies --   1092.9856              1105.3340              1124.9377
 Red. masses --      1.8623                 1.6202                 1.9102
 Frc consts  --      1.3108                 1.1663                 1.4243
 IR Inten    --      0.7195                33.1420                30.7651

                     40                     41                     42
                      A                      A                      A
 Frequencies --   1137.1530              1178.3835              1194.7156
 Red. masses --      2.0328                 2.0161                 1.2952
 Frc consts  --      1.5488                 1.6494                 1.0892
 IR Inten    --      1.7648                36.8266                 1.3984

                     43                     44                     45
                      A                      A                      A
 Frequencies --   1221.6254              1245.3130              1252.3431
 Red. masses --      1.5858                 1.3163                 1.3531
 Frc consts  --      1.3944                 1.2027                 1.2503
 IR Inten    --     57.3617                21.1668                 0.3799

                     46                     47                     48
                      A                      A                      A
 Frequencies --   1297.7635              1315.5389              1328.1009
 Red. masses --      1.2748                 1.1897                 1.2771
 Frc consts  --      1.2650                 1.2131                 1.3272
 IR Inten    --      2.0775                 0.4382                 1.8291

                     49                     50                     51
                      A                      A                      A
 Frequencies --   1330.4029              1342.3250              1365.8398
 Red. masses --      1.2820                 1.2176                 1.2665
 Frc consts  --      1.3370                 1.2926                 1.3920
 IR Inten    --      6.5547                 6.6638                 7.6722

                     52                     53                     54
                      A                      A                      A
 Frequencies --   1376.4399              1383.5287              1388.0578
 Red. masses --      1.3306                 1.7853                 1.4828
 Frc consts  --      1.4853                 2.0134                 1.6832
 IR Inten    --     14.3714                22.8312                 3.6917

                     55                     56                     57
                      A                      A                      A
 Frequencies --   1391.7685              1408.6261              1417.7029
 Red. masses --      1.4333                 1.4435                 1.4107
 Frc consts  --      1.6358                 1.6876                 1.6706
 IR Inten    --      0.1472                 0.0878                 2.5846

                     58                     59                     60
                      A                      A                      A
 Frequencies --   1425.7126              1429.3492              1483.8570
 Red. masses --      1.5127                 1.2692                 1.0886
 Frc consts  --      1.8116                 1.5278                 1.4123
 IR Inten    --      3.6014                 5.3511                 7.9058

                     61                     62                     63
                      A                      A                      A
 Frequencies --   1492.4086              1499.8107              1500.4587
 Red. masses --      1.0823                 1.0905                 1.0644
 Frc consts  --      1.4203                 1.4453                 1.4119
 IR Inten    --      1.5408                 1.8907                 0.6834

                     64                     65                     66
                      A                      A                      A
 Frequencies --   1505.8589              1509.8666              1514.9049
 Red. masses --      1.0712                 1.0910                 1.0792
 Frc consts  --      1.4311                 1.4654                 1.4593
 IR Inten    --      1.8851                 3.0437                 3.5573

                     67                     68                     69
                      A                      A                      A
 Frequencies --   1520.3322              1522.8018              1525.6997
 Red. masses --      1.0743                 1.0688                 1.0774
 Frc consts  --      1.4631                 1.4603                 1.4776
 IR Inten    --      6.9738                 7.5756                 7.8718

                     70                     71                     72
                      A                      A                      A
 Frequencies --   1850.3690              3023.1243              3024.6968
 Red. masses --      9.6838                 1.0618                 1.0642
 Frc consts  --     19.5350                 5.7177                 5.7362
 IR Inten    --    276.1041                30.1422                 7.3821

                     73                     74                     75
                      A                      A                      A
 Frequencies --   3026.5156              3029.4406              3033.1160
 Red. masses --      1.0646                 1.0666                 1.0611
 Frc consts  --      5.7456                 5.7675                 5.7513
 IR Inten    --     24.1534                15.6130                19.8680

                     76                     77                     78
                      A                      A                      A
 Frequencies --   3042.8244              3044.9927              3047.2006
 Red. masses --      1.0453                 1.0597                 1.0687
 Frc consts  --      5.7025                 5.7891                 5.8468
 IR Inten    --     13.8864                11.0094                34.2499

                     79                     80                     81
                      A                      A                      A
 Frequencies --   3057.7026              3058.6753              3062.7452
 Red. masses --      1.0674                 1.1001                 1.0952
 Frc consts  --      5.8798                 6.0636                 6.0529
 IR Inten    --     18.4230                 7.6876                31.4780

                     82                     83                     84
                      A                      A                      A
 Frequencies --   3065.0115              3069.0148              3079.2058
 Red. masses --      1.1012                 1.0935                 1.0974
 Frc consts  --      6.0949                 6.0683                 6.1302
 IR Inten    --     64.8611                38.6502                57.5092

                     85                     86                     87
                      A                      A                      A
 Frequencies --   3085.0040              3105.4844              3106.5216
 Red. masses --      1.0997                 1.1016                 1.0994
 Frc consts  --      6.1663                 6.2595                 6.2511
 IR Inten    --     99.4944                49.2687                17.1934

                     88                     89                     90
                      A                      A                      A
 Frequencies --   3129.1986              3133.2281              3755.6241
 Red. masses --      1.0983                 1.0989                 1.0642
 Frc consts  --      6.3366                 6.3559                 8.8438
 IR Inten    --     23.7718                38.7184                48.0478

 - Thermochemistry -
 -------------------
 Temperature   298.150 Kelvin.  Pressure   1.00000 Atm.
 Atom     1 has atomic number  8 and mass  15.99491

 Molecular mass:   172.14633 amu.
 Principal axes and moments of inertia in atomic units:
                           1         2         3
     Eigenvalues --  1194.301854511.784114971.34632
           X            0.99983   0.01652   0.00810
           Y           -0.01638   0.99972  -0.01697
           Z           -0.00838   0.01684   0.99982
 This molecule is an asymmetric top.
 Rotational symmetry number  1.
 Warning -- assumption of classical behavior for rotation
           may cause significant error
 Rotational temperatures (Kelvin)      0.07252     0.01920     0.01742
 Rotational constants (GHZ):           1.51113     0.40001     0.36303
 Zero-point vibrational energy     767558.1 (Joules/Mol)
                                  183.45078 (Kcal/Mol)
 Warning -- explicit consideration of  19 degrees of freedom as
           vibrations may cause significant error
 Vibrational temperatures:     33.27    56.54    61.99    93.56   106.31
          (Kelvin)            148.19   183.40   271.55   336.04   353.27
                              378.08   405.48   488.14   514.91   573.11
                              643.41   685.14   775.88   815.57   895.42
                             1007.88  1040.49  1077.92  1110.02  1151.44
                             1183.02  1210.57  1252.56  1298.71  1331.77
                             1383.69  1431.00  1444.10  1500.81  1525.12
                             1526.71  1572.56  1590.33  1618.53  1636.11
                             1695.43  1718.93  1757.65  1791.73  1801.84
                             1867.19  1892.77  1910.84  1914.15  1931.31
                             1965.14  1980.39  1990.59  1997.11  2002.44
                             2026.70  2039.76  2051.28  2056.51  2134.94
                             2147.24  2157.89  2158.83  2166.60  2172.36
                             2179.61  2187.42  2190.97  2195.14  2662.27
                             4349.60  4351.86  4354.48  4358.69  4363.98
                             4377.95  4381.07  4384.24  4399.35  4400.75
                             4406.61  4409.87  4415.63  4430.29  4438.63
                             4468.10  4469.59  4502.22  4508.02  5403.51

 Zero-point correction=                           0.292347 (Hartree/Particle)
 Thermal correction to Energy=                    0.306668
 Thermal correction to Enthalpy=                  0.307612
 Thermal correction to Gibbs Free Energy=         0.249055
 Sum of electronic and zero-point Energies=           -543.372964
 Sum of electronic and thermal Energies=              -543.358643
 Sum of electronic and thermal Enthalpies=            -543.357698
 Sum of electronic and thermal Free Energies=         -543.416256

                     E (Thermal)             CV                S
                      KCal/Mol        Cal/Mol-Kelvin    Cal/Mol-Kelvin
 Total                  192.437             52.117            123.245
 Electronic               0.000              0.000              0.000
 Translational            0.889              2.981             41.337
 Rotational               0.889              2.981             31.660
 Vibrational            190.660             46.156             50.247
 Vibration     1          0.593              1.985              6.346
 Vibration     2          0.594              1.981              5.294
 Vibration     3          0.595              1.980              5.112
 Vibration     4          0.597              1.971              4.298
 Vibration     5          0.599              1.966              4.047
 Vibration     6          0.605              1.947              3.397
 Vibration     7          0.611              1.926              2.984
 Vibration     8          0.633              1.855              2.240
 Vibration     9          0.654              1.790              1.851
 Vibration    10          0.660              1.770              1.762
 Vibration    11          0.670              1.741              1.643
 Vibration    12          0.681              1.707              1.523
 Vibration    13          0.719              1.597              1.216
 Vibration    14          0.733              1.559              1.131
 Vibration    15          0.765              1.474              0.969
 Vibration    16          0.806              1.367              0.804
 Vibration    17          0.833              1.303              0.720
 Vibration    18          0.894              1.163              0.567
 Vibration    19          0.923              1.103              0.510

                           ! Non-Optimized Parameters !
 Normal termination of Gaussian 16 at Thu Feb  3 06:58:54 2022.

 ----------------------------------------------------------------------
 # M062X/def2tzvp int=(grid=ultrafine) pop=nbo7 polar prop=efg volume g
 uess=read geom=check
 ----------------------------------------------------------------------

 -------
 Ac1.xyz
 -------
 Structure from the checkpoint file:  "Ac1_clust-14.chk"
 Charge =  0 Multiplicity = 1

 SCF Done:  E(RM062X) =  -543.539852401     A.U. after   11 cycles

  Exact polarizability:     137.812       1.365     121.473      -2.057       0.142     111.844
 Approx polarizability:     142.179      -0.534     146.021      -5.099       2.571     148.340

 Summary of Natural Population Analysis:

                                     Natural Population
             Natural    ---------------------------------------------
  Atom No    Charge        Core      Valence    Rydberg      Total
 --------------------------------------------------------------------
    O  1   -0.70126      2.00000     6.67898    0.02228     8.70126
    C  2    0.79578      1.99999     3.16611    0.03812     5.20422
    C  3   -0.50639      1.99999     4.49323    0.01317     6.50639
    C  4   -0.39369      1.99999     4.38226    0.01144     6.39369
    C  5   -0.40340      1.99999     4.39155    0.01186     6.40340
    C  6   -0.39818      1.99999     4.38691    0.01127     6.39818
    C  7   -0.40107      1.99999     4.39011    0.01097     6.40107
    C  8   -0.40196      1.99999     4.39039    0.01158     6.40196
    C  9   -0.40022      1.99999     4.38901    0.01121     6.40022
    C 10   -0.40002      1.99999     4.38905    0.01098     6.40002
    C 11   -0.60681      1.99999     4.59792    0.00889     6.60681
    O 12   -0.59021      2.00000     6.56374    0.02647     8.59021
    H 13    0.49527      0.00000     0.50122    0.00351     0.50473
    H 14    0.22889      0.00000     0.76963    0.00148     0.77111
    H 15    0.23685      0.00000     0.76187    0.00128     0.76315
    H 16    0.21265      0.00000     0.78549    0.00186     0.78735
    H 17    0.20726      0.00000     0.79106    0.00168     0.79274
    H 18    0.20650      0.00000     0.79190    0.00160     0.79350
    H 19    0.19744      0.00000     0.80039    0.00217     0.80256
    H 20    0.20213      0.00000     0.79625    0.00161     0.79787
    H 21    0.20521      0.00000     0.79308    0.00171     0.79479
    H 22    0.20125      0.00000     0.79719    0.00156     0.79875
    H 23    0.20207      0.00000     0.79637    0.00156     0.79793
    H 24    0.20580      0.00000     0.79258    0.00162     0.79420
    H 25    0.20144      0.00000     0.79689    0.00167     0.79856
    H 26    0.19362      0.00000     0.80443    0.00195     0.80638
    H 27    0.20649      0.00000     0.79215    0.00136     0.79351
    H 28    0.20159      0.00000     0.79690    0.00150     0.79841
    H 29    0.19409      0.00000     0.80396    0.00194     0.80591
    H 30    0.19973      0.00000     0.79894    0.00133     0.80027
    H 31    0.20924      0.00000     0.78974    0.00102     0.79076
    H 32    0.19988      0.00000     0.79889    0.00123     0.80012
 ====================================================================
 * Total *  0.00000     23.99992    71.77816    0.22192    96.00000

 1\1\GINC-NOTCH075\SP\RM062X\def2TZVP\C10H20O2\U6032257\03-Feb-2022\0\\
 # M062X/def2tzvp int=(grid=ultrafine) pop=nbo7 polar prop=efg volume g
 uess=read geom=check\\Ac1.xyz\\0,1\O,0,5.4747924816,-1.2752132836,-1.0
 511071822\C,0,4.6182991957,-0.4436235591,-0.3973776248\C,0,3.706209501
 2,-1.1999300903,0.5416464292\C,0,2.9824429213,-2.3709777636,-0.1410588
 018\C,0,2.0866369181,-1.9175268762,-1.2978804484\C,0,1.410276697,-3.06
 85299477,-2.0547798165\C,0,2.3785109976,-4.0726045087,-2.7019521294\C,
 0,3.4473037838,-3.4524029186,-3.6159022625\C,0,2.9502555958,-2.5916080

 Normal termination of Gaussian 16 at Thu Feb  3 07:02:39 2022.
 Gaussian 16:  ES64L-G16RevC.01  3-Jul-2019

 --------------------------------------------------------------------
 # M062X/def2tzvp int=(grid=ultrafine) nmr=giao guess=read geom=check
 --------------------------------------------------------------------

 -------
 Ac1.xyz
 -------
 Structure from the checkpoint file:  "Ac1_clust-14.chk"
 Charge =  0 Multiplicity = 1

                         Standard orientation:
 ---------------------------------------------------------------------
 Center     Atomic      Atomic             Coordinates (Angstroms)
 Number     Number       Type             X           Y           Z
 ---------------------------------------------------------------------
      1          8           0        2.503470   -1.296917    0.883913
      2          6           0        3.031807   -0.672612   -0.204016
      3          6           0        3.051185    0.829815   -0.036651
      4          6           0        1.683969    1.404894    0.364947
      5          6           0        0.597395    1.127690   -0.678527
      6          6           0       -0.799491    1.617547   -0.273661
      7          6           0       -1.352905    0.993921    1.018353
      8          6           0       -1.347566   -0.542583    1.055773
      9          6           0       -2.097449   -1.272410   -0.071304
     10          6           0       -3.626531   -1.085936   -0.100553
     11          6           0       -4.125968    0.159073   -0.842007
     12          8           0        3.430426   -1.289019   -1.166278
     13          1           0        2.529876   -2.247299    0.682310
     14          1           0        3.401548    1.248964   -0.982805
     15          1           0        3.795494    1.067068    0.733209
     16          1           0        1.398941    0.979334    1.331162
     17          1           0        1.785821    2.486724    0.513439
     18          1           0        0.883454    1.600461   -1.626748
     19          1           0        0.558923    0.050506   -0.882690
     20          1           0       -0.779159    2.709089   -0.155523
     21          1           0       -1.489628    1.417498   -1.100874
     22          1           0       -0.770486    1.355856    1.874625
     23          1           0       -2.370186    1.367304    1.181406
     24          1           0       -0.307663   -0.891870    1.058555
     25          1           0       -1.770872   -0.864554    2.016593
     26          1           0       -1.680165   -0.992699   -1.047759
     27          1           0       -1.884568   -2.342519    0.043599
     28          1           0       -4.073186   -1.965496   -0.580521
     29          1           0       -4.008392   -1.081578    0.929454
     30          1           0       -3.759586    0.168729   -1.874808
     31          1           0       -5.220157    0.178442   -0.880104
     32          1           0       -3.797856    1.087134   -0.367736
 ---------------------------------------------------------------------

 SCF Done:  E(RM062X) =  -543.539852401     A.U. after    1 cycles

      1  O    Isotropic =   105.3194   Anisotropy =   229.4483

      2  C    Isotropic =    -8.4743   Anisotropy =   127.9672

      3  C    Isotropic =   146.8381   Anisotropy =    28.8394

      4  C    Isotropic =   160.6539   Anisotropy =    16.5202

      5  C    Isotropic =   159.7053   Anisotropy =    25.1697

      6  C    Isotropic =   160.7782   Anisotropy =    19.6871

      7  C    Isotropic =   162.0383   Anisotropy =    17.2718

      8  C    Isotropic =   157.2248   Anisotropy =    24.6939

      9  C    Isotropic =   158.6132   Anisotropy =    25.1416

     10  C    Isotropic =   159.5411   Anisotropy =    23.0754

     11  C    Isotropic =   168.0287   Anisotropy =    25.8619

     12  O    Isotropic =  -182.9244   Anisotropy =   631.3830

     13  H    Isotropic =    25.8380   Anisotropy =    10.1507

     14  H    Isotropic =    29.7296   Anisotropy =     6.9854

     15  H    Isotropic =    29.4066   Anisotropy =     8.5571

     16  H    Isotropic =    29.8704   Anisotropy =     4.2271

     17  H    Isotropic =    30.7862   Anisotropy =     8.6218

     18  H    Isotropic =    30.6657   Anisotropy =     8.5669

     19  H    Isotropic =    30.6179   Anisotropy =     3.8253

     20  H    Isotropic =    30.6695   Anisotropy =     9.3399

     21  H    Isotropic =    30.1651   Anisotropy =     8.7863

     22  H    Isotropic =    30.3560   Anisotropy =     7.8114

     23  H    Isotropic =    30.3290   Anisotropy =     7.8915

     24  H    Isotropic =    30.1020   Anisotropy =     9.4837

     25  H    Isotropic =    30.6841   Anisotropy =     8.7986

     26  H    Isotropic =    30.7424   Anisotropy =     3.9713

     27  H    Isotropic =    30.4288   Anisotropy =     9.1354

     28  H    Isotropic =    30.3088   Anisotropy =    10.1075

     29  H    Isotropic =    30.7576   Anisotropy =     7.4518

     30  H    Isotropic =    31.0614   Anisotropy =     7.4211

     31  H    Isotropic =    30.8204   Anisotropy =    11.4768

     32  H    Isotropic =    30.7456   Anisotropy =     5.4293

 The electronic state is 1-A.
 Alpha  occ. eigenvalues --  -19.67619 -19.62153 -10.67969 -10.55484 -10.54312
 Alpha  occ. eigenvalues --  -10.53387 -10.53050 -10.52913 -10.52811 -10.52731
 Alpha  occ. eigenvalues --  -10.52655 -10.52144  -1.23567  -1.14031  -0.92326
 Alpha  occ. eigenvalues --   -0.89961  -0.86620  -0.82446  -0.78357  -0.74208
 Alpha  occ. eigenvalues --   -0.70527  -0.68363  -0.65961  -0.62119  -0.58331
 Alpha  occ. eigenvalues --   -0.56841  -0.55410  -0.54822  -0.53745  -0.51453
 Alpha  occ. eigenvalues --   -0.50111  -0.49371  -0.48725  -0.46873  -0.46479
 Alpha  occ. eigenvalues --   -0.45371  -0.43960  -0.43661  -0.42184  -0.41227
 Alpha  occ. eigenvalues --   -0.40113  -0.39825  -0.39167  -0.38274  -0.36705
 Alpha  occ. eigenvalues --   -0.36393  -0.36086  -0.35479
 Alpha virt. eigenvalues --    0.04148   0.05167   0.06796   0.07802   0.08178
 Alpha virt. eigenvalues --    0.09768   0.09887   0.10509   0.11457   0.12752
 Alpha virt. eigenvalues --    0.13430   0.13916   0.14415   0.14525   0.14982

 Mulliken charges:
               1
     1  O   -0.411122
     2  C    0.315455
     3  C   -0.282740
     4  C   -0.309057
     5  C   -0.311231
     6  C   -0.303827
     7  C   -0.369022
     8  C   -0.305365
     9  C   -0.283638
    10  C   -0.237228
    11  C   -0.458376
    12  O   -0.324753
    13  H    0.337756
    14  H    0.165403
    15  H    0.166126
    16  H    0.175423
    17  H    0.152935
    18  H    0.151978
    19  H    0.168945
    20  H    0.151720
    21  H    0.172082
    22  H    0.165169
    23  H    0.167636
    24  H    0.158161
    25  H    0.152996
    26  H    0.153129
    27  H    0.139898
    28  H    0.135431
    29  H    0.136759
    30  H    0.147779
    31  H    0.145534
    32  H    0.136042
 Sum of Mulliken charges =  -0.00000

 Dipole moment (field-independent basis, Debye):
    X=             -0.8835    Y=              0.8580    Z=              1.4344  Tot=              1.8905
 Quadrupole moment (field-independent basis, Debye-Ang):
   XX=            -81.8809   YY=            -73.6980   ZZ=            -81.3366
   XY=              4.8964   XZ=              6.0055   YZ=             -3.2150

 1\1\GINC-NOTCH075\SP\RM062X\def2TZVP\C10H20O2\U6032257\03-Feb-2022\0\\
 # M062X/def2tzvp int=(grid=ultrafine) nmr=giao guess=read geom=check\\
 Ac1.xyz\\0,1\O,0,5.4747924816,-1.2752132836,-1.0511071822\C,0,4.618299
 1957,-0.4436235591,-0.3973776248\C,0,3.7062095012,-1.1999300903,0.5416
 464292\C,0,2.9824429213,-2.3709777636,-0.1410588018\C,0,2.0866369181,-
 1.9175268762,-1.2978804484\C,0,1.410276697,-3.0685299477,-2.0547798165
 \C,0,2.3785109976,-4.0726045087,-2.7019521294\C,0,3.4473037838,-3.4524
 029186,-3.6159022625\C,0,2.9502555958,-2.5916080887,-4.7894647814\C,0,

 Normal termination of Gaussian 16 at Thu Feb  3 07:04:12 2022.
