 Gaussian 16, Revision C.01,

 ----------------------------------------------------------------------
 # B3LYP/6-31G(d,p) empiricaldispersion=GD3BJ int=(grid=ultrafine) opt
 freq=noraman
 ----------------------------------------------------------------------

 -------
 Ac1.xyz
 -------
 Symbolic Z-matrix:
 Charge =  0 Multiplicity = 1

 SCF Done:  E(RB3LYP) =  -543.660962232     A.U. after   13 cycles
 SCF Done:  E(RB3LYP) =  -543.663383001     A.U. after   12 cycles
 SCF Done:  E(RB3LYP) =  -543.663241056     A.U. after   10 cycles
 SCF Done:  E(RB3LYP) =  -543.663606761     A.U. after   10 cycles
 SCF Done:  E(RB3LYP) =  -543.663553470     A.U. after   11 cycles
 SCF Done:  E(RB3LYP) =  -543.663636028     A.U. after   10 cycles
 SCF Done:  E(RB3LYP) =  -543.663640092     A.U. after    9 cycles
 SCF Done:  E(RB3LYP) =  -543.663640455     A.U. after    7 cycles
 SCF Done:  E(RB3LYP) =  -543.663640700     A.U. after    7 cycles
 SCF Done:  E(RB3LYP) =  -543.663640788     A.U. after    7 cycles
 SCF Done:  E(RB3LYP) =  -543.663640828     A.U. after    7 cycles
 Optimization completed.
    -- Stationary point found.
 Normal termination of Gaussian 16 at Sat Feb  5 08:57:57 2022.

 ----------------------------------------------------------------------
 #N Geom=AllCheck Guess=TCheck SCRF=Check GenChk RB3LYP/6-31G(d,p) Freq
 ----------------------------------------------------------------------

 Structure from the checkpoint file:  "Ac1_clust-6.chk"
 -------
 Ac1.xyz
 -------
 Charge =  0 Multiplicity = 1

 SCF Done:  E(RB3LYP) =  -543.663640828     A.U. after    1 cycles

                      1                      2                      3
                      A                      A                      A
 Frequencies --     28.3103                33.5029                38.3907
 Red. masses --      3.5628                 8.0679                 3.1842
 Frc consts  --      0.0017                 0.0053                 0.0028
 IR Inten    --      0.0648                 1.2135                 0.0303

                      4                      5                      6
                      A                      A                      A
 Frequencies --     52.8121                77.4923               119.9112
 Red. masses --      4.5583                 2.6179                 2.4166
 Frc consts  --      0.0075                 0.0093                 0.0205
 IR Inten    --      0.6548                 0.0227                 0.2160

                      7                      8                      9
                      A                      A                      A
 Frequencies --    137.2141               152.2299               178.9422
 Red. masses --      2.0813                 2.5755                 2.0213
 Frc consts  --      0.0231                 0.0352                 0.0381
 IR Inten    --      0.0707                 0.6094                 0.3104

                     10                     11                     12
                      A                      A                      A
 Frequencies --    243.7233               259.5288               291.8448
 Red. masses --      1.8580                 2.6396                 1.3900
 Frc consts  --      0.0650                 0.1048                 0.0698
 IR Inten    --      0.1042                 2.1930                 0.0569

                     13                     14                     15
                      A                      A                      A
 Frequencies --    311.1621               337.7116               353.8456
 Red. masses --      2.1365                 2.9057                 2.3024
 Frc consts  --      0.1219                 0.1952                 0.1698
 IR Inten    --      0.1802                 1.3263                 0.1831

                     16                     17                     18
                      A                      A                      A
 Frequencies --    451.7536               462.9558               519.8594
 Red. masses --      1.6898                 1.8628                 3.1473
 Frc consts  --      0.2032                 0.2352                 0.5011
 IR Inten    --      0.4822                 0.3813                20.9798

                     19                     20                     21
                      A                      A                      A
 Frequencies --    521.8340               620.6062               679.9805
 Red. masses --      1.8916                 3.2795                 1.3867
 Frc consts  --      0.3035                 0.7442                 0.3778
 IR Inten    --     25.8405                12.5831                98.8479

                     22                     23                     24
                      A                      A                      A
 Frequencies --    748.2820               767.1955               781.1077
 Red. masses --      1.1808                 1.2914                 2.1791
 Frc consts  --      0.3895                 0.4478                 0.7833
 IR Inten    --      6.1883                 2.5774                 5.7366

                     25                     26                     27
                      A                      A                      A
 Frequencies --    807.8871               828.3895               854.5635
 Red. masses --      2.0144                 1.9269                 1.7283
 Frc consts  --      0.7746                 0.7791                 0.7436
 IR Inten    --      5.7159                 0.4941                 1.0140

                     28                     29                     30
                      A                      A                      A
 Frequencies --    876.4395               897.6499               933.6691
 Red. masses --      2.1089                 1.6692                 1.7890
 Frc consts  --      0.9544                 0.7924                 0.9188
 IR Inten    --      9.0718                 4.6262                 0.8093

                     31                     32                     33
                      A                      A                      A
 Frequencies --    958.7957               982.9080              1022.1188
 Red. masses --      1.8606                 1.7394                 2.2464
 Frc consts  --      1.0077                 0.9901                 1.3827
 IR Inten    --      0.8241                 1.7271                 0.8641

                     34                     35                     36
                      A                      A                      A
 Frequencies --   1058.3798              1068.4941              1077.8334
 Red. masses --      1.7517                 1.7770                 2.1893
 Frc consts  --      1.1561                 1.1953                 1.4985
 IR Inten    --      0.9609                 6.7367                 2.4639

                     37                     38                     39
                      A                      A                      A
 Frequencies --   1087.9977              1118.5229              1126.1311
 Red. masses --      2.0654                 2.1482                 1.8456
 Frc consts  --      1.4405                 1.5835                 1.3790
 IR Inten    --      2.3976                 6.1714                99.6235

                     40                     41                     42
                      A                      A                      A
 Frequencies --   1141.5898              1165.2087              1193.1900
 Red. masses --      1.7545                 1.8697                 1.6584
 Frc consts  --      1.3472                 1.4956                 1.3911
 IR Inten    --      7.6853                76.2019               115.0178

                     43                     44                     45
                      A                      A                      A
 Frequencies --   1227.9026              1250.6242              1265.6409
 Red. masses --      1.3487                 1.3304                 1.2909
 Frc consts  --      1.1981                 1.2260                 1.2183
 IR Inten    --      8.2233                 0.3000                 3.0943

                     46                     47                     48
                      A                      A                      A
 Frequencies --   1293.0492              1312.5808              1321.5825
 Red. masses --      1.2366                 1.3349                 1.2555
 Frc consts  --      1.2182                 1.3551                 1.2920
 IR Inten    --      0.9759                 0.4812                 2.1740

                     49                     50                     51
                      A                      A                      A
 Frequencies --   1326.1892              1333.8432              1349.1624
 Red. masses --      1.2179                 1.2628                 1.0947
 Frc consts  --      1.2620                 1.3237                 1.1740
 IR Inten    --      3.3123                10.3980                 3.6543

                     52                     53                     54
                      A                      A                      A
 Frequencies --   1365.8781              1390.4512              1394.1166
 Red. masses --      1.2887                 1.3972                 1.4136
 Frc consts  --      1.4166                 1.5916                 1.6188
 IR Inten    --      8.0344                 4.9676                 0.5019

                     55                     56                     57
                      A                      A                      A
 Frequencies --   1394.4687              1396.8047              1423.6812
 Red. masses --      1.4128                 1.3943                 1.6500
 Frc consts  --      1.6186                 1.6028                 1.9705
 IR Inten    --      0.5137                 1.5967                15.7696

                     58                     59                     60
                      A                      A                      A
 Frequencies --   1427.1869              1429.6698              1470.9233
 Red. masses --      2.0303                 1.2792                 1.0977
 Frc consts  --      2.4365                 1.5405                 1.3994
 IR Inten    --     44.2797                 4.4218                16.0065

                     61                     62                     63
                      A                      A                      A
 Frequencies --   1494.8551              1495.4915              1497.9549
 Red. masses --      1.0860                 1.0783                 1.0731
 Frc consts  --      1.4298                 1.4209                 1.4187
 IR Inten    --      4.2058                 0.3836                 0.9220

                     64                     65                     66
                      A                      A                      A
 Frequencies --   1503.9240              1506.8315              1511.9648
 Red. masses --      1.0800                 1.0804                 1.0756
 Frc consts  --      1.4392                 1.4453                 1.4488
 IR Inten    --      0.1389                 1.4080                 2.8487

                     67                     68                     69
                      A                      A                      A
 Frequencies --   1518.9079              1520.3207              1523.9500
 Red. masses --      1.0984                 1.0634                 1.0610
 Frc consts  --      1.4930                 1.4481                 1.4518
 IR Inten    --      3.1030                10.3230                 8.3264

                     70                     71                     72
                      A                      A                      A
 Frequencies --   1841.2872              3011.6027              3017.8523
 Red. masses --      9.6036                 1.0625                 1.0675
 Frc consts  --     19.1834                 5.6776                 5.7283
 IR Inten    --    228.8482                 3.0399                48.3560

                     73                     74                     75
                      A                      A                      A
 Frequencies --   3022.0981              3024.5685              3034.2489
 Red. masses --      1.0619                 1.0627                 1.0657
 Frc consts  --      5.7143                 5.7278                 5.7808
 IR Inten    --     24.9424                13.0290                29.6473

                     76                     77                     78
                      A                      A                      A
 Frequencies --   3038.4853              3040.8919              3041.6833
 Red. masses --      1.0452                 1.0611                 1.0634
 Frc consts  --      5.6854                 5.7810                 5.7966
 IR Inten    --     33.0122                 2.5049                35.4782

                     79                     80                     81
                      A                      A                      A
 Frequencies --   3050.0508              3050.4094              3057.2201
 Red. masses --      1.0878                 1.0710                 1.0981
 Frc consts  --      5.9625                 5.8719                 6.0469
 IR Inten    --     30.8399                11.7880                19.7031

                     82                     83                     84
                      A                      A                      A
 Frequencies --   3066.1454              3076.6772              3081.1119
 Red. masses --      1.0976                 1.1011                 1.0997
 Frc consts  --      6.0795                 6.1412                 6.1509
 IR Inten    --     69.7183                30.0954                 5.6941

                     85                     86                     87
                      A                      A                      A
 Frequencies --   3085.1768              3092.2635              3106.1208
 Red. masses --      1.1000                 1.0955                 1.1017
 Frc consts  --      6.1690                 6.1719                 6.2623
 IR Inten    --     77.6339                18.6560                57.7121

                     88                     89                     90
                      A                      A                      A
 Frequencies --   3106.8554              3117.0077              3751.3650
 Red. masses --      1.0993                 1.1016                 1.0641
 Frc consts  --      6.2520                 6.3057                 8.8225
 IR Inten    --     42.3833                39.9196                45.3529

 - Thermochemistry -
 -------------------
 Temperature   298.150 Kelvin.  Pressure   1.00000 Atm.
 Atom     1 has atomic number  8 and mass  15.99491

 Molecular mass:   172.14633 amu.
 Principal axes and moments of inertia in atomic units:
                           1         2         3
     Eigenvalues --  1364.619445079.312425712.42608
           X            0.99986   0.01651  -0.00122
           Y           -0.01651   0.99986   0.00152
           Z            0.00125  -0.00150   1.00000
 This molecule is an asymmetric top.
 Rotational symmetry number  1.
 Warning -- assumption of classical behavior for rotation
           may cause significant error
 Rotational temperatures (Kelvin)      0.06347     0.01705     0.01516
 Rotational constants (GHZ):           1.32252     0.35531     0.31593
 Zero-point vibrational energy     765795.7 (Joules/Mol)
                                  183.02957 (Kcal/Mol)
 Warning -- explicit consideration of  20 degrees of freedom as
           vibrations may cause significant error
 Vibrational temperatures:     40.73    48.20    55.24    75.98   111.49
          (Kelvin)            172.53   197.42   219.02   257.46   350.66
                              373.40   419.90   447.69   485.89   509.10
                              649.97   666.09   747.96   750.80   892.91
                              978.34  1076.61  1103.82  1123.84  1162.37
                             1191.87  1229.53  1261.00  1291.52  1343.34
                             1379.49  1414.19  1470.60  1522.77  1537.32
                             1550.76  1565.39  1609.31  1620.25  1642.49
                             1676.48  1716.73  1766.68  1799.37  1820.97
                             1860.41  1888.51  1901.46  1908.09  1919.10
                             1941.14  1965.19  2000.55  2005.82  2006.33
                             2009.69  2048.36  2053.40  2056.98  2116.33
                             2150.76  2151.68  2155.22  2163.81  2167.99
                             2175.38  2185.37  2187.40  2192.62  2649.20
                             4333.02  4342.02  4348.13  4351.68  4365.61
                             4371.70  4375.17  4376.30  4388.34  4388.86
                             4398.66  4411.50  4426.65  4433.03  4438.88
                             4449.08  4469.02  4470.07  4484.68  5397.38

 Zero-point correction=                           0.291676 (Hartree/Particle)
 Thermal correction to Energy=                    0.306246
 Thermal correction to Enthalpy=                  0.307190
 Thermal correction to Gibbs Free Energy=         0.247780
 Sum of electronic and zero-point Energies=           -543.371965
 Sum of electronic and thermal Energies=              -543.357395
 Sum of electronic and thermal Enthalpies=            -543.356451
 Sum of electronic and thermal Free Energies=         -543.415861

                     E (Thermal)             CV                S
                      KCal/Mol        Cal/Mol-Kelvin    Cal/Mol-Kelvin
 Total                  192.172             52.431            125.040
 Electronic               0.000              0.000              0.000
 Translational            0.889              2.981             41.337
 Rotational               0.889              2.981             32.049
 Vibrational            190.395             46.470             51.654
 Vibration     1          0.593              1.984              5.944
 Vibration     2          0.594              1.983              5.610
 Vibration     3          0.594              1.982              5.340
 Vibration     4          0.596              1.976              4.709
 Vibration     5          0.599              1.964              3.953
 Vibration     6          0.609              1.933              3.102
 Vibration     7          0.614              1.916              2.842
 Vibration     8          0.619              1.900              2.644
 Vibration     9          0.629              1.868              2.339
 Vibration    10          0.659              1.773              1.776
 Vibration    11          0.668              1.747              1.665
 Vibration    12          0.687              1.689              1.463
 Vibration    13          0.700              1.652              1.356
 Vibration    14          0.718              1.600              1.223
 Vibration    15          0.730              1.567              1.149
 Vibration    16          0.810              1.357              0.790
 Vibration    17          0.821              1.332              0.758
 Vibration    18          0.875              1.206              0.610
 Vibration    19          0.877              1.202              0.606
 Vibration    20          0.981              0.988              0.416

 Optimization completed.
    -- Stationary point found.
 Normal termination of Gaussian 16 at Sat Feb  5 08:59:11 2022.

 ----------------------------------------------------------------------
 # M062X/def2tzvp int=(grid=ultrafine) pop=nbo7 polar prop=efg volume g
 uess=read geom=check
 ----------------------------------------------------------------------

 -------
 Ac1.xyz
 -------
 Structure from the checkpoint file:  "Ac1_clust-6.chk"
 Charge =  0 Multiplicity = 1

 SCF Done:  E(RM062X) =  -543.538704719     A.U. after   11 cycles

  Exact polarizability:     136.701      -0.675     123.938      -2.326      -1.065     113.085
 Approx polarizability:     141.689      -2.443     144.036      -4.463       0.095     149.946

 Summary of Natural Population Analysis:

                                     Natural Population
             Natural    ---------------------------------------------
  Atom No    Charge        Core      Valence    Rydberg      Total
 --------------------------------------------------------------------
    O  1   -0.68702      2.00000     6.66505    0.02197     8.68702
    C  2    0.79755      1.99999     3.16573    0.03673     5.20245
    C  3   -0.51150      1.99999     4.49875    0.01276     6.51150
    C  4   -0.39043      1.99999     4.37822    0.01222     6.39043
    C  5   -0.40510      1.99999     4.39346    0.01165     6.40510
    C  6   -0.38599      1.99999     4.37476    0.01123     6.38599
    C  7   -0.39449      1.99999     4.38364    0.01086     6.39449
    C  8   -0.41184      1.99999     4.39990    0.01195     6.41184
    C  9   -0.39767      1.99999     4.38654    0.01113     6.39767
    C 10   -0.38982      1.99999     4.37926    0.01057     6.38982
    C 11   -0.61084      1.99999     4.60197    0.00888     6.61084
    O 12   -0.60220      2.00000     6.57583    0.02638     8.60220
    H 13    0.49274      0.00000     0.50386    0.00340     0.50726
    H 14    0.23079      0.00000     0.76769    0.00152     0.76921
    H 15    0.24117      0.00000     0.75767    0.00116     0.75883
    H 16    0.21563      0.00000     0.78252    0.00185     0.78437
    H 17    0.20281      0.00000     0.79555    0.00164     0.79719
    H 18    0.18970      0.00000     0.80827    0.00203     0.81030
    H 19    0.21318      0.00000     0.78479    0.00203     0.78682
    H 20    0.19503      0.00000     0.80303    0.00195     0.80497
    H 21    0.19654      0.00000     0.80171    0.00175     0.80346
    H 22    0.20575      0.00000     0.79284    0.00141     0.79425
    H 23    0.19602      0.00000     0.80206    0.00192     0.80398
    H 24    0.20193      0.00000     0.79640    0.00167     0.79807
    H 25    0.20587      0.00000     0.79251    0.00162     0.79413
    H 26    0.19483      0.00000     0.80329    0.00187     0.80517
    H 27    0.20747      0.00000     0.79117    0.00136     0.79253
    H 28    0.19874      0.00000     0.79967    0.00158     0.80126
    H 29    0.19194      0.00000     0.80620    0.00186     0.80806
    H 30    0.19860      0.00000     0.80000    0.00140     0.80140
    H 31    0.20933      0.00000     0.78965    0.00101     0.79067
    H 32    0.20130      0.00000     0.79750    0.00120     0.79870
 ====================================================================
 * Total *  0.00000     23.99992    71.77952    0.22056    96.00000

 1\1\GINC-NOTCH134\SP\RM062X\def2TZVP\C10H20O2\U6032257\05-Feb-2022\0\\
 # M062X/def2tzvp int=(grid=ultrafine) pop=nbo7 polar prop=efg volume g
 uess=read geom=check\\Ac1.xyz\\0,1\O,0,5.5271971636,0.5230137211,-0.38
 60526722\C,0,4.9601040158,-0.7061993219,-0.3020659541\C,0,3.5391504044
 ,-0.6286721828,0.2104289354\C,0,2.7767160238,-1.9462586729,0.068473599
 1\C,0,2.4681665208,-2.3130409384,-1.3861110289\C,0,1.7143701324,-3.639
 6757903,-1.5106453369\C,0,1.3274290501,-4.038982292,-2.9422736937\C,0,
 2.5273787356,-4.2443098088,-3.8921780479\C,0,2.9604337937,-3.002972216

 Normal termination of Gaussian 16 at Sat Feb  5 09:02:03 2022.
 Gaussian 16:  ES64L-G16RevC.01  3-Jul-2019

 --------------------------------------------------------------------
 # M062X/def2tzvp int=(grid=ultrafine) nmr=giao guess=read geom=check
 --------------------------------------------------------------------

 -------
 Ac1.xyz
 -------
 Structure from the checkpoint file:  "Ac1_clust-6.chk"
 Charge =  0 Multiplicity = 1

                         Standard orientation:
 ---------------------------------------------------------------------
 Center     Atomic      Atomic             Coordinates (Angstroms)
 Number     Number       Type             X           Y           Z
 ---------------------------------------------------------------------
      1          8           0        3.881427   -1.717325   -0.432950
      2          6           0        3.175573   -0.700544    0.121614
      3          6           0        2.955688    0.425501   -0.864004
      4          6           0        1.945937    1.463788   -0.374257
      5          6           0        0.510365    0.932993   -0.320047
      6          6           0       -0.485502    1.981537    0.182427
      7          6           0       -1.952665    1.528320    0.209921
      8          6           0       -2.230772    0.328082    1.140749
      9          6           0       -2.151233   -1.065062    0.479287
     10          6           0       -3.493007   -1.595561   -0.048199
     11          6           0       -4.138288   -0.746212   -1.146587
     12          8           0        2.804998   -0.724493    1.275251
     13          1           0        3.995890   -2.377912    0.271058
     14          1           0        2.653217   -0.013083   -1.821881
     15          1           0        3.937962    0.881492   -1.042813
     16          1           0        2.244914    1.803908    0.623353
     17          1           0        1.991341    2.336677   -1.036645
     18          1           0        0.210360    0.592469   -1.321681
     19          1           0        0.486736    0.055298    0.333007
     20          1           0       -0.190735    2.289982    1.195221
     21          1           0       -0.403934    2.879904   -0.444856
     22          1           0       -2.561741    2.382576    0.529768
     23          1           0       -2.276667    1.292733   -0.810602
     24          1           0       -3.226224    0.437935    1.589784
     25          1           0       -1.524940    0.374468    1.979505
     26          1           0       -1.424854   -1.047562   -0.341645
     27          1           0       -1.764787   -1.788414    1.207396
     28          1           0       -3.342615   -2.614696   -0.426781
     29          1           0       -4.192446   -1.685089    0.794173
     30          1           0       -3.465270   -0.629552   -2.003754
     31          1           0       -5.061672   -1.209208   -1.509493
     32          1           0       -4.392503    0.255567   -0.786950
 ---------------------------------------------------------------------

 SCF Done:  E(RM062X) =  -543.538704719     A.U. after    1 cycles

      1  O    Isotropic =   102.0901   Anisotropy =   243.2662

      2  C    Isotropic =    -9.4947   Anisotropy =   124.1498

      3  C    Isotropic =   150.1012   Anisotropy =    35.3419

      4  C    Isotropic =   158.0811   Anisotropy =    24.6533

      5  C    Isotropic =   153.4675   Anisotropy =    26.6461

      6  C    Isotropic =   148.9374   Anisotropy =    26.8776

      7  C    Isotropic =   153.6370   Anisotropy =    14.3906

      8  C    Isotropic =   154.4776   Anisotropy =    23.9643

      9  C    Isotropic =   153.1596   Anisotropy =    13.0706

     10  C    Isotropic =   157.4833   Anisotropy =    21.8509

     11  C    Isotropic =   171.1234   Anisotropy =    15.0909

     12  O    Isotropic =  -161.2160   Anisotropy =   655.5837

     13  H    Isotropic =    25.6967   Anisotropy =    11.3708

     14  H    Isotropic =    29.6108   Anisotropy =     5.9299

     15  H    Isotropic =    29.4956   Anisotropy =     8.8915

     16  H    Isotropic =    30.1679   Anisotropy =     6.3613

     17  H    Isotropic =    30.7503   Anisotropy =     8.0481

     18  H    Isotropic =    31.2156   Anisotropy =     5.1230

     19  H    Isotropic =    30.0004   Anisotropy =     7.1599

     20  H    Isotropic =    30.7000   Anisotropy =     6.4712

     21  H    Isotropic =    30.4994   Anisotropy =     7.5555

     22  H    Isotropic =    30.1968   Anisotropy =     9.0007

     23  H    Isotropic =    30.7662   Anisotropy =     6.9579

     24  H    Isotropic =    30.6040   Anisotropy =     7.3813

     25  H    Isotropic =    30.4851   Anisotropy =     6.2622

     26  H    Isotropic =    30.9457   Anisotropy =     8.0562

     27  H    Isotropic =    30.1999   Anisotropy =     8.0294

     28  H    Isotropic =    30.4006   Anisotropy =     9.7360

     29  H    Isotropic =    30.7753   Anisotropy =     8.8198

     30  H    Isotropic =    31.2695   Anisotropy =     7.2623

     31  H    Isotropic =    30.8703   Anisotropy =    11.3099

     32  H    Isotropic =    30.8024   Anisotropy =     5.5975

 The electronic state is 1-A.
 Alpha  occ. eigenvalues --  -19.67592 -19.62256 -10.68076 -10.55574 -10.53721
 Alpha  occ. eigenvalues --  -10.52721 -10.52634 -10.52581 -10.52475 -10.52360
 Alpha  occ. eigenvalues --  -10.52276 -10.51937  -1.23673  -1.14125  -0.91735
 Alpha  occ. eigenvalues --   -0.89752  -0.86612  -0.82192  -0.78297  -0.73914
 Alpha  occ. eigenvalues --   -0.70189  -0.66137  -0.65000  -0.63681  -0.58762
 Alpha  occ. eigenvalues --   -0.57774  -0.55776  -0.54312  -0.51944  -0.51550
 Alpha  occ. eigenvalues --   -0.50617  -0.48765  -0.48060  -0.47166  -0.45651
 Alpha  occ. eigenvalues --   -0.45335  -0.43502  -0.42494  -0.41668  -0.40915
 Alpha  occ. eigenvalues --   -0.39975  -0.39777  -0.38485  -0.38146  -0.36693
 Alpha  occ. eigenvalues --   -0.36125  -0.35927  -0.35514
 Alpha virt. eigenvalues --    0.04239   0.05968   0.06839   0.07896   0.08158
 Alpha virt. eigenvalues --    0.08777   0.09999   0.11112   0.11473   0.12767
 Alpha virt. eigenvalues --    0.12815   0.13577   0.14175   0.14903   0.15385

 Mulliken charges:
               1
     1  O   -0.408912
     2  C    0.340507
     3  C   -0.322513
     4  C   -0.259325
     5  C   -0.353850
     6  C   -0.287404
     7  C   -0.285944
     8  C   -0.320814
     9  C   -0.297785
    10  C   -0.244899
    11  C   -0.462848
    12  O   -0.338716
    13  H    0.334377
    14  H    0.173594
    15  H    0.176093
    16  H    0.165372
    17  H    0.145622
    18  H    0.141522
    19  H    0.185816
    20  H    0.155376
    21  H    0.136523
    22  H    0.146134
    23  H    0.159508
    24  H    0.153252
    25  H    0.161130
    26  H    0.155147
    27  H    0.147492
    28  H    0.131519
    29  H    0.138986
    30  H    0.141136
    31  H    0.145597
    32  H    0.148310
 Sum of Mulliken charges =  -0.00000

 Dipole moment (field-independent basis, Debye):
    X=              0.4276    Y=              0.0499    Z=             -1.2895  Tot=              1.3595
 Quadrupole moment (field-independent basis, Debye-Ang):
   XX=            -74.6352   YY=            -73.7055   ZZ=            -80.6626
   XY=             -0.8952   XZ=             -2.7704   YZ=             -1.3067

 1\1\GINC-NOTCH134\SP\RM062X\def2TZVP\C10H20O2\U6032257\05-Feb-2022\0\\
 # M062X/def2tzvp int=(grid=ultrafine) nmr=giao guess=read geom=check\\
 Ac1.xyz\\0,1\O,0,5.5271971636,0.5230137211,-0.3860526722\C,0,4.9601040
 158,-0.7061993219,-0.3020659541\C,0,3.5391504044,-0.6286721828,0.21042
 89354\C,0,2.7767160238,-1.9462586729,0.0684735991\C,0,2.4681665208,-2.
 3130409384,-1.3861110289\C,0,1.7143701324,-3.6396757903,-1.5106453369\
 C,0,1.3274290501,-4.038982292,-2.9422736937\C,0,2.5273787356,-4.244309
 8088,-3.8921780479\C,0,2.9604337937,-3.0029722169,-4.7022731286\C,0,2.

 Normal termination of Gaussian 16 at Sat Feb  5 09:03:16 2022.
