 Gaussian 16, Revision C.01,

 ----------------------------------------------------------------------
 # B3LYP/6-31G(d,p) empiricaldispersion=GD3BJ int=(grid=ultrafine) opt
 freq=noraman
 ----------------------------------------------------------------------

 -------
 Ac1.xyz
 -------
 Symbolic Z-matrix:
 Charge =  0 Multiplicity = 1

 SCF Done:  E(RB3LYP) =  -543.668118413     A.U. after   13 cycles
 SCF Done:  E(RB3LYP) =  -543.669535049     A.U. after   12 cycles
 SCF Done:  E(RB3LYP) =  -543.668304322     A.U. after   13 cycles
 SCF Done:  E(RB3LYP) =  -543.668881203     A.U. after   13 cycles
 SCF Done:  E(RB3LYP) =  -543.670921426     A.U. after   10 cycles
 SCF Done:  E(RB3LYP) =  -543.671059832     A.U. after   11 cycles
 SCF Done:  E(RB3LYP) =  -543.671102413     A.U. after   11 cycles
 SCF Done:  E(RB3LYP) =  -543.671188062     A.U. after   11 cycles
 SCF Done:  E(RB3LYP) =  -543.671264214     A.U. after   11 cycles
 SCF Done:  E(RB3LYP) =  -543.671269140     A.U. after    9 cycles
 SCF Done:  E(RB3LYP) =  -543.671270531     A.U. after    8 cycles
 SCF Done:  E(RB3LYP) =  -543.671271027     A.U. after    8 cycles
 SCF Done:  E(RB3LYP) =  -543.671271190     A.U. after    7 cycles
 SCF Done:  E(RB3LYP) =  -543.671271210     A.U. after    6 cycles
 Optimization completed.
    -- Stationary point found.
 Normal termination of Gaussian 16 at Sat Feb  5 09:02:51 2022.

 ----------------------------------------------------------------------
 #N Geom=AllCheck Guess=TCheck SCRF=Check GenChk RB3LYP/6-31G(d,p) Freq
 ----------------------------------------------------------------------

 Structure from the checkpoint file:  "Ac1_clust-9.chk"
 -------
 Ac1.xyz
 -------
 Charge =  0 Multiplicity = 1

 SCF Done:  E(RB3LYP) =  -543.671271210     A.U. after    1 cycles

                      1                      2                      3
                      A                      A                      A
 Frequencies --     31.4745                42.2003                43.1261
 Red. masses --      4.0208                 3.6157                 3.9779
 Frc consts  --      0.0023                 0.0038                 0.0044
 IR Inten    --      0.4145                 0.4288                 0.4407

                      4                      5                      6
                      A                      A                      A
 Frequencies --     54.6118                72.1256               113.7961
 Red. masses --      4.9647                 2.9132                 3.7187
 Frc consts  --      0.0087                 0.0089                 0.0284
 IR Inten    --      0.5295                 0.1875                 0.6077

                      7                      8                      9
                      A                      A                      A
 Frequencies --    165.9339               208.4386               218.7715
 Red. masses --      1.6338                 2.3477                 1.8685
 Frc consts  --      0.0265                 0.0601                 0.0527
 IR Inten    --      0.1555                 0.2383                 0.0825

                     10                     11                     12
                      A                      A                      A
 Frequencies --    250.8639               257.7949               276.6736
 Red. masses --      2.6808                 2.1613                 1.5487
 Frc consts  --      0.0994                 0.0846                 0.0698
 IR Inten    --      0.6342                 1.1513                 0.9093

                     13                     14                     15
                      A                      A                      A
 Frequencies --    297.2155               328.9144               385.9195
 Red. masses --      2.1031                 2.1400                 2.1998
 Frc consts  --      0.1095                 0.1364                 0.1930
 IR Inten    --      0.6069                 0.2345                 1.4469

                     16                     17                     18
                      A                      A                      A
 Frequencies --    452.1645               513.7549               519.6058
 Red. masses --      2.4487                 2.6148                 1.7299
 Frc consts  --      0.2950                 0.4066                 0.2752
 IR Inten    --      2.9940                 7.9078                17.6248

                     19                     20                     21
                      A                      A                      A
 Frequencies --    550.4861               624.6016               682.2986
 Red. masses --      2.7582                 2.9602                 1.3748
 Frc consts  --      0.4925                 0.6804                 0.3771
 IR Inten    --     21.2700                 9.2644                96.3353

                     22                     23                     24
                      A                      A                      A
 Frequencies --    720.9801               752.4639               790.0240
 Red. masses --      1.2108                 1.2833                 1.6227
 Frc consts  --      0.3708                 0.4281                 0.5967
 IR Inten    --      1.8988                17.5633                 5.2318

                     25                     26                     27
                      A                      A                      A
 Frequencies --    802.1580               833.1911               849.1213
 Red. masses --      1.9263                 2.0598                 2.1513
 Frc consts  --      0.7303                 0.8425                 0.9139
 IR Inten    --      0.6192                 1.8992                 3.5942

                     28                     29                     30
                      A                      A                      A
 Frequencies --    860.7120               890.3981               933.3818
 Red. masses --      1.7998                 1.6390                 2.0197
 Frc consts  --      0.7856                 0.7656                 1.0367
 IR Inten    --      2.5082                 1.3168                 2.7443

                     31                     32                     33
                      A                      A                      A
 Frequencies --    965.1918               997.8273              1007.8340
 Red. masses --      1.7342                 1.8689                 1.6685
 Frc consts  --      0.9519                 1.0963                 0.9985
 IR Inten    --      2.7348                 2.1091                 0.1559

                     34                     35                     36
                      A                      A                      A
 Frequencies --   1045.9995              1057.1078              1078.4256
 Red. masses --      1.6212                 1.7128                 1.8081
 Frc consts  --      1.0451                 1.1277                 1.2390
 IR Inten    --      0.2314                 2.4655                 6.1837

                     37                     38                     39
                      A                      A                      A
 Frequencies --   1091.7563              1110.1437              1132.4277
 Red. masses --      2.1500                 2.0993                 1.8249
 Frc consts  --      1.5099                 1.5244                 1.3788
 IR Inten    --      1.6308                 0.0630                98.3410

                     40                     41                     42
                      A                      A                      A
 Frequencies --   1139.6136              1173.6259              1194.6391
 Red. masses --      1.7719                 2.2348                 1.4321
 Frc consts  --      1.3559                 1.8137                 1.2042
 IR Inten    --      1.2445               132.6677                 7.1803

                     43                     44                     45
                      A                      A                      A
 Frequencies --   1212.9603              1237.7298              1270.5098
 Red. masses --      1.5510                 1.3716                 1.3451
 Frc consts  --      1.3445                 1.2380                 1.2792
 IR Inten    --     84.5793                 0.3700                 2.7367

                     46                     47                     48
                      A                      A                      A
 Frequencies --   1299.6035              1312.7072              1323.6118
 Red. masses --      1.2832                 1.3474                 1.3648
 Frc consts  --      1.2769                 1.3680                 1.4088
 IR Inten    --      1.0799                 0.9874                 5.7760

                     49                     50                     51
                      A                      A                      A
 Frequencies --   1326.3609              1340.3387              1348.1198
 Red. masses --      1.2340                 1.1815                 1.2065
 Frc consts  --      1.2791                 1.2506                 1.2919
 IR Inten    --      3.8879                 4.3413                 1.6755

                     52                     53                     54
                      A                      A                      A
 Frequencies --   1364.6326              1386.8966              1393.4069
 Red. masses --      1.2113                 1.3252                 1.4044
 Frc consts  --      1.3290                 1.5018                 1.6065
 IR Inten    --      3.3252                 3.8983                11.2940

                     55                     56                     57
                      A                      A                      A
 Frequencies --   1399.5337              1419.7434              1422.9124
 Red. masses --      1.4441                 1.5174                 1.5279
 Frc consts  --      1.6665                 1.8020                 1.8226
 IR Inten    --      1.0343                 4.2221                 0.5676

                     58                     59                     60
                      A                      A                      A
 Frequencies --   1427.6509              1435.3676              1471.2974
 Red. masses --      2.1443                 1.2571                 1.0996
 Frc consts  --      2.5750                 1.5260                 1.4024
 IR Inten    --     56.7995                 4.5211                16.7869

                     61                     62                     63
                      A                      A                      A
 Frequencies --   1495.4164              1497.3468              1501.7691
 Red. masses --      1.0721                 1.0819                 1.0882
 Frc consts  --      1.4125                 1.4291                 1.4460
 IR Inten    --      0.8361                 0.9837                 1.7021

                     64                     65                     66
                      A                      A                      A
 Frequencies --   1507.9615              1510.2542              1514.5091
 Red. masses --      1.0603                 1.0873                 1.0869
 Frc consts  --      1.4205                 1.4612                 1.4688
 IR Inten    --      1.3996                 1.7317                 8.9462

                     67                     68                     69
                      A                      A                      A
 Frequencies --   1517.4593              1523.5896              1533.7838
 Red. masses --      1.0747                 1.0759                 1.0668
 Frc consts  --      1.4581                 1.4715                 1.4787
 IR Inten    --      1.5927                 5.4523                 0.7599

                     70                     71                     72
                      A                      A                      A
 Frequencies --   1830.7715              3014.0366              3017.2969
 Red. masses --      9.5213                 1.0623                 1.0626
 Frc consts  --     18.8024                 5.6860                 5.6996
 IR Inten    --    312.8833                16.3552                17.2791

                     73                     74                     75
                      A                      A                      A
 Frequencies --   3025.0593              3028.4324              3032.8934
 Red. masses --      1.0645                 1.0687                 1.0635
 Frc consts  --      5.7392                 5.7750                 5.7637
 IR Inten    --     24.9149                62.2399                34.3294

                     76                     77                     78
                      A                      A                      A
 Frequencies --   3036.0114              3040.4554              3043.6209
 Red. masses --      1.0640                 1.0413                 1.0659
 Frc consts  --      5.7781                 5.6718                 5.8176
 IR Inten    --     48.6910                13.4070                22.4889

                     79                     80                     81
                      A                      A                      A
 Frequencies --   3051.9381              3052.6091              3053.8393
 Red. masses --      1.0943                 1.0862                 1.0850
 Frc consts  --      6.0052                 5.9633                 5.9615
 IR Inten    --     17.7150                46.6457                 5.2531

                     82                     83                     84
                      A                      A                      A
 Frequencies --   3064.0440              3073.9956              3085.7565
 Red. masses --      1.1002                 1.0948                 1.0974
 Frc consts  --      6.0859                 6.0954                 6.1566
 IR Inten    --     47.4670                38.8248                 4.7174

                     85                     86                     87
                      A                      A                      A
 Frequencies --   3091.3998              3097.1883              3103.4478
 Red. masses --      1.0964                 1.0941                 1.1014
 Frc consts  --      6.1733                 6.1834                 6.2502
 IR Inten    --     48.4914                37.4618                53.8298

                     88                     89                     90
                      A                      A                      A
 Frequencies --   3113.1606              3129.4445              3749.7539
 Red. masses --      1.0987                 1.1001                 1.0641
 Frc consts  --      6.2737                 6.3475                 8.8149
 IR Inten    --     43.7516                23.7738                47.3045

 - Thermochemistry -
 -------------------
 Temperature   298.150 Kelvin.  Pressure   1.00000 Atm.
 Atom     1 has atomic number  8 and mass  15.99491

 Molecular mass:   172.14633 amu.
 Principal axes and moments of inertia in atomic units:
                           1         2         3
     Eigenvalues --  1663.097413477.109774568.43767
           X            0.99953   0.03019   0.00428
           Y           -0.03016   0.99951  -0.00849
           Z           -0.00453   0.00836   0.99995
 This molecule is an asymmetric top.
 Rotational symmetry number  1.
 Warning -- assumption of classical behavior for rotation
           may cause significant error
 Rotational temperatures (Kelvin)      0.05208     0.02491     0.01896
 Rotational constants (GHZ):           1.08517     0.51903     0.39505
 Zero-point vibrational energy     767095.9 (Joules/Mol)
                                  183.34033 (Kcal/Mol)
 Warning -- explicit consideration of  19 degrees of freedom as
           vibrations may cause significant error
 Vibrational temperatures:     45.28    60.72    62.05    78.57   103.77
          (Kelvin)            163.73   238.74   299.90   314.76   360.94
                              370.91   398.07   427.63   473.23   555.25
                              650.56   739.18   747.60   792.03   898.66
                              981.68  1037.33  1082.63  1136.67  1154.13
                             1198.78  1221.70  1238.37  1281.08  1342.93
                             1388.70  1435.65  1450.05  1504.96  1520.94
                             1551.61  1570.79  1597.25  1629.31  1639.65
                             1688.59  1718.82  1745.18  1780.82  1827.98
                             1869.84  1888.69  1904.38  1908.34  1928.45
                             1939.64  1963.40  1995.43  2004.80  2013.62
                             2042.69  2047.25  2054.07  2065.17  2116.87
                             2151.57  2154.35  2160.71  2169.62  2172.92
                             2179.04  2183.29  2192.11  2206.77  2634.07
                             4336.53  4341.22  4352.39  4357.24  4363.66
                             4368.14  4374.54  4379.09  4391.06  4392.02
                             4393.79  4408.48  4422.79  4439.72  4447.83
                             4456.16  4465.17  4479.14  4502.57  5395.06

 Zero-point correction=                           0.292171 (Hartree/Particle)
 Thermal correction to Energy=                    0.306483
 Thermal correction to Enthalpy=                  0.307427
 Thermal correction to Gibbs Free Energy=         0.249231
 Sum of electronic and zero-point Energies=           -543.379100
 Sum of electronic and thermal Energies=              -543.364788
 Sum of electronic and thermal Enthalpies=            -543.363844
 Sum of electronic and thermal Free Energies=         -543.422040

                     E (Thermal)             CV                S
                      KCal/Mol        Cal/Mol-Kelvin    Cal/Mol-Kelvin
 Total                  192.321             52.183            122.484
 Electronic               0.000              0.000              0.000
 Translational            0.889              2.981             41.337
 Rotational               0.889              2.981             31.647
 Vibrational            190.544             46.221             49.500
 Vibration     1          0.594              1.983              5.734
 Vibration     2          0.595              1.980              5.153
 Vibration     3          0.595              1.980              5.110
 Vibration     4          0.596              1.976              4.643
 Vibration     5          0.598              1.967              4.094
 Vibration     6          0.607              1.938              3.203
 Vibration     7          0.624              1.884              2.481
 Vibration     8          0.642              1.828              2.057
 Vibration     9          0.647              1.812              1.969
 Vibration    10          0.663              1.761              1.725
 Vibration    11          0.667              1.750              1.677
 Vibration    12          0.678              1.717              1.554
 Vibration    13          0.691              1.679              1.433
 Vibration    14          0.712              1.618              1.265
 Vibration    15          0.755              1.500              1.016
 Vibration    16          0.811              1.356              0.789
 Vibration    17          0.869              1.220              0.625
 Vibration    18          0.875              1.207              0.611
 Vibration    19          0.906              1.139              0.543

                           ! Non-Optimized Parameters !
 Normal termination of Gaussian 16 at Sat Feb  5 09:04:32 2022.

 ----------------------------------------------------------------------
 # M062X/def2tzvp int=(grid=ultrafine) pop=nbo7 polar prop=efg volume g
 uess=read geom=check
 ----------------------------------------------------------------------

 -------
 Ac1.xyz
 -------
 Structure from the checkpoint file:  "Ac1_clust-9.chk"
 Charge =  0 Multiplicity = 1

 SCF Done:  E(RM062X) =  -543.544899849     A.U. after   11 cycles

  Exact polarizability:     139.040       0.696     127.124       2.046       1.683     108.233
 Approx polarizability:     152.355       1.995     143.713       1.534       3.869     140.839

 Summary of Natural Population Analysis:

                                     Natural Population
             Natural    ---------------------------------------------
  Atom No    Charge        Core      Valence    Rydberg      Total
 --------------------------------------------------------------------
    O  1   -0.68456      2.00000     6.66250    0.02206     8.68456
    C  2    0.80195      1.99999     3.16137    0.03668     5.19805
    C  3   -0.51126      1.99999     4.49844    0.01282     6.51126
    C  4   -0.40005      1.99999     4.38748    0.01258     6.40005
    C  5   -0.40080      1.99999     4.38942    0.01139     6.40080
    C  6   -0.38560      1.99999     4.37473    0.01088     6.38560
    C  7   -0.40040      1.99999     4.38890    0.01151     6.40040
    C  8   -0.41168      1.99999     4.39986    0.01182     6.41168
    C  9   -0.38684      1.99999     4.37581    0.01104     6.38684
    C 10   -0.39572      1.99999     4.38559    0.01014     6.39572
    C 11   -0.61638      1.99999     4.60711    0.00928     6.61638
    O 12   -0.61145      2.00000     6.58519    0.02626     8.61145
    H 13    0.49358      0.00000     0.50309    0.00333     0.50642
    H 14    0.23140      0.00000     0.76706    0.00154     0.76860
    H 15    0.24192      0.00000     0.75690    0.00118     0.75808
    H 16    0.21528      0.00000     0.78273    0.00199     0.78472
    H 17    0.20563      0.00000     0.79276    0.00161     0.79437
    H 18    0.19891      0.00000     0.79948    0.00161     0.80109
    H 19    0.20714      0.00000     0.79092    0.00194     0.79286
    H 20    0.19695      0.00000     0.80135    0.00169     0.80305
    H 21    0.20031      0.00000     0.79801    0.00169     0.79969
    H 22    0.19313      0.00000     0.80503    0.00184     0.80687
    H 23    0.20116      0.00000     0.79712    0.00172     0.79884
    H 24    0.21386      0.00000     0.78435    0.00179     0.78614
    H 25    0.19845      0.00000     0.79986    0.00169     0.80155
    H 26    0.19491      0.00000     0.80342    0.00167     0.80509
    H 27    0.19806      0.00000     0.80023    0.00172     0.80194
    H 28    0.19109      0.00000     0.80720    0.00171     0.80891
    H 29    0.19882      0.00000     0.79963    0.00155     0.80118
    H 30    0.20040      0.00000     0.79826    0.00134     0.79960
    H 31    0.21699      0.00000     0.78177    0.00124     0.78301
    H 32    0.20478      0.00000     0.79422    0.00100     0.79522
 ====================================================================
 * Total *  0.00000     23.99992    71.77980    0.22029    96.00000

 1\1\GINC-NOTCH075\SP\RM062X\def2TZVP\C10H20O2\U6032257\05-Feb-2022\0\\
 # M062X/def2tzvp int=(grid=ultrafine) pop=nbo7 polar prop=efg volume g
 uess=read geom=check\\Ac1.xyz\\0,1\O,0,5.7099908867,-0.0924581362,-0.3
 882633342\C,0,4.8938034422,-1.0030271618,-0.9701265139\C,0,4.496864752
 1,-2.0963831096,-0.0033677575\C,0,3.3541720815,-2.9650801579,-0.528221
 4739\C,0,2.0104627735,-2.2288214256,-0.5588794323\C,0,0.8683636807,-3.
 0463138383,-1.1796905974\C,0,1.1014297984,-3.4736971902,-2.6369533488\
 C,0,1.3396131088,-2.3047892451,-3.5998171969\C,0,1.478587765,-2.734098

 Normal termination of Gaussian 16 at Sat Feb  5 09:08:26 2022.
 Gaussian 16:  ES64L-G16RevC.01  3-Jul-2019

 --------------------------------------------------------------------
 # M062X/def2tzvp int=(grid=ultrafine) nmr=giao guess=read geom=check
 --------------------------------------------------------------------

 -------
 Ac1.xyz
 -------
 Structure from the checkpoint file:  "Ac1_clust-9.chk"
 Charge =  0 Multiplicity = 1

                         Standard orientation:
 ---------------------------------------------------------------------
 Center     Atomic      Atomic             Coordinates (Angstroms)
 Number     Number       Type             X           Y           Z
 ---------------------------------------------------------------------
      1          8           0        3.701478   -1.319236   -0.546267
      2          6           0        2.491308   -0.844181   -0.167226
      3          6           0        2.622431    0.340639    0.763697
      4          6           0        1.301014    1.079971    0.971299
      5          6           0        0.847930    1.852791   -0.272097
      6          6           0       -0.527970    2.518122   -0.122681
      7          6           0       -1.684028    1.547719    0.164440
      8          6           0       -1.867136    0.461926   -0.902194
      9          6           0       -3.081424   -0.445729   -0.655665
     10          6           0       -3.005010   -1.300663    0.619254
     11          6           0       -1.849417   -2.306077    0.622547
     12          8           0        1.454746   -1.355019   -0.537644
     13          1           0        3.522796   -2.088229   -1.113829
     14          1           0        3.403583    1.000594    0.369668
     15          1           0        3.012342   -0.050504    1.712333
     16          1           0        0.540447    0.347632    1.256478
     17          1           0        1.408127    1.771885    1.815320
     18          1           0        1.594784    2.624135   -0.503017
     19          1           0        0.833360    1.171829   -1.129348
     20          1           0       -0.481115    3.265724    0.680691
     21          1           0       -0.748404    3.072846   -1.044113
     22          1           0       -1.533437    1.081359    1.144954
     23          1           0       -2.613927    2.125742    0.251094
     24          1           0       -0.961967   -0.150650   -0.969255
     25          1           0       -1.980748    0.946598   -1.881658
     26          1           0       -3.988299    0.173197   -0.616640
     27          1           0       -3.203819   -1.114826   -1.517908
     28          1           0       -2.928175   -0.648996    1.498732
     29          1           0       -3.953338   -1.841229    0.731984
     30          1           0       -1.923669   -2.986389   -0.233852
     31          1           0       -0.872918   -1.817983    0.559238
     32          1           0       -1.861606   -2.915794    1.532166
 ---------------------------------------------------------------------

 SCF Done:  E(RM062X) =  -543.544899849     A.U. after    1 cycles

      1  O    Isotropic =   101.5301   Anisotropy =   240.9010

      2  C    Isotropic =   -10.3141   Anisotropy =   124.4884

      3  C    Isotropic =   150.4590   Anisotropy =    35.0008

      4  C    Isotropic =   163.5816   Anisotropy =    14.1119

      5  C    Isotropic =   158.3656   Anisotropy =    25.6989

      6  C    Isotropic =   155.6384   Anisotropy =    12.3465

      7  C    Isotropic =   160.3631   Anisotropy =    20.6112

      8  C    Isotropic =   162.0151   Anisotropy =    19.4181

      9  C    Isotropic =   153.1333   Anisotropy =    12.7019

     10  C    Isotropic =   164.7626   Anisotropy =    13.1049

     11  C    Isotropic =   173.7609   Anisotropy =    19.1356

     12  O    Isotropic =  -157.4355   Anisotropy =   642.6446

     13  H    Isotropic =    25.6250   Anisotropy =    11.3340

     14  H    Isotropic =    29.6536   Anisotropy =     7.1533

     15  H    Isotropic =    29.4929   Anisotropy =     8.8433

     16  H    Isotropic =    29.8840   Anisotropy =     6.7150

     17  H    Isotropic =    30.9902   Anisotropy =     9.1175

     18  H    Isotropic =    30.8991   Anisotropy =     9.2399

     19  H    Isotropic =    30.2697   Anisotropy =     3.1974

     20  H    Isotropic =    30.4666   Anisotropy =     9.5656

     21  H    Isotropic =    30.4808   Anisotropy =     9.5194

     22  H    Isotropic =    30.2265   Anisotropy =     3.8059

     23  H    Isotropic =    31.0001   Anisotropy =     8.9569

     24  H    Isotropic =    29.7265   Anisotropy =     6.1889

     25  H    Isotropic =    31.0672   Anisotropy =     8.3961

     26  H    Isotropic =    30.4787   Anisotropy =     9.0122

     27  H    Isotropic =    30.4597   Anisotropy =     9.3436

     28  H    Isotropic =    30.4707   Anisotropy =     6.1081

     29  H    Isotropic =    30.5577   Anisotropy =    10.7091

     30  H    Isotropic =    31.3802   Anisotropy =     9.4461

     31  H    Isotropic =    30.1598   Anisotropy =    10.1776

     32  H    Isotropic =    31.0350   Anisotropy =    10.3561

 The electronic state is 1-A.
 Alpha  occ. eigenvalues --  -19.67872 -19.62598 -10.68405 -10.55758 -10.53794
 Alpha  occ. eigenvalues --  -10.52833 -10.52642 -10.52096 -10.51844 -10.51796
 Alpha  occ. eigenvalues --  -10.51556 -10.50724  -1.24004  -1.14385  -0.91824
 Alpha  occ. eigenvalues --   -0.89429  -0.86318  -0.81814  -0.77652  -0.73675
 Alpha  occ. eigenvalues --   -0.70299  -0.67149  -0.64666  -0.61648  -0.59050
 Alpha  occ. eigenvalues --   -0.58147  -0.55912  -0.53662  -0.53031  -0.51229
 Alpha  occ. eigenvalues --   -0.49890  -0.49143  -0.47926  -0.46519  -0.45423
 Alpha  occ. eigenvalues --   -0.44480  -0.43680  -0.42270  -0.41534  -0.40796
 Alpha  occ. eigenvalues --   -0.40063  -0.38690  -0.38272  -0.37521  -0.36338
 Alpha  occ. eigenvalues --   -0.36007  -0.35830  -0.35484
 Alpha virt. eigenvalues --    0.03908   0.05950   0.06908   0.07973   0.08519
 Alpha virt. eigenvalues --    0.09259   0.10814   0.11468   0.11848   0.13329
 Alpha virt. eigenvalues --    0.13566   0.14349   0.14526   0.15487   0.15823

 Mulliken charges:
               1
     1  O   -0.408842
     2  C    0.358792
     3  C   -0.318362
     4  C   -0.287437
     5  C   -0.328881
     6  C   -0.273481
     7  C   -0.321798
     8  C   -0.336671
     9  C   -0.263356
    10  C   -0.275301
    11  C   -0.414619
    12  O   -0.345502
    13  H    0.335326
    14  H    0.173803
    15  H    0.175846
    16  H    0.165599
    17  H    0.150615
    18  H    0.145178
    19  H    0.179324
    20  H    0.146193
    21  H    0.148749
    22  H    0.157902
    23  H    0.148147
    24  H    0.183087
    25  H    0.144528
    26  H    0.138624
    27  H    0.144572
    28  H    0.140164
    29  H    0.133314
    30  H    0.136118
    31  H    0.132107
    32  H    0.136262
 Sum of Mulliken charges =  -0.00000

 Dipole moment (field-independent basis, Debye):
    X=              1.4942    Y=              0.6187    Z=              0.4043  Tot=              1.6670
 Quadrupole moment (field-independent basis, Debye-Ang):
   XX=            -75.3940   YY=            -75.8969   ZZ=            -75.6664
   XY=             -1.8837   XZ=             -0.0323   YZ=              1.6705

 1\1\GINC-NOTCH075\SP\RM062X\def2TZVP\C10H20O2\U6032257\05-Feb-2022\0\\
 # M062X/def2tzvp int=(grid=ultrafine) nmr=giao guess=read geom=check\\
 Ac1.xyz\\0,1\O,0,5.7099908867,-0.0924581362,-0.3882633342\C,0,4.893803
 4422,-1.0030271618,-0.9701265139\C,0,4.4968647521,-2.0963831096,-0.003
 3677575\C,0,3.3541720815,-2.9650801579,-0.5282214739\C,0,2.0104627735,
 -2.2288214256,-0.5588794323\C,0,0.8683636807,-3.0463138383,-1.17969059
 74\C,0,1.1014297984,-3.4736971902,-2.6369533488\C,0,1.3396131088,-2.30
 47892451,-3.5998171969\C,0,1.478587765,-2.7340986089,-5.0679751029\C,0

 Normal termination of Gaussian 16 at Sat Feb  5 09:09:58 2022.
