 Gaussian 16, Revision C.01,

 ----------------------------------------------------------------------
 # B3LYP/6-31G(d,p) empiricaldispersion=GD3BJ int=(grid=ultrafine) opt
 freq=noraman
 ----------------------------------------------------------------------

 -------
 Ac1.xyz
 -------
 Symbolic Z-matrix:
 Charge =  0 Multiplicity = 1

 SCF Done:  E(RB3LYP) =  -543.665386596     A.U. after   13 cycles
 SCF Done:  E(RB3LYP) =  -543.667775884     A.U. after   11 cycles
 SCF Done:  E(RB3LYP) =  -543.667802958     A.U. after   11 cycles
 SCF Done:  E(RB3LYP) =  -543.667779686     A.U. after   10 cycles
 SCF Done:  E(RB3LYP) =  -543.667939998     A.U. after   10 cycles
 SCF Done:  E(RB3LYP) =  -543.667944873     A.U. after    8 cycles
 SCF Done:  E(RB3LYP) =  -543.667945278     A.U. after    8 cycles
 SCF Done:  E(RB3LYP) =  -543.667945664     A.U. after    7 cycles
 SCF Done:  E(RB3LYP) =  -543.667945936     A.U. after    7 cycles
 SCF Done:  E(RB3LYP) =  -543.667945986     A.U. after    7 cycles
 Optimization completed.
    -- Stationary point found.
 Normal termination of Gaussian 16 at Thu Feb  3 10:20:08 2022.

 ----------------------------------------------------------------------
 #N Geom=AllCheck Guess=TCheck SCRF=Check GenChk RB3LYP/6-31G(d,p) Freq
 ----------------------------------------------------------------------

 Structure from the checkpoint file:  "Ac1_clust-36.chk"
 -------
 Ac1.xyz
 -------
 Charge =  0 Multiplicity = 1

 SCF Done:  E(RB3LYP) =  -543.667945986     A.U. after    1 cycles

                      1                      2                      3
                      A                      A                      A
 Frequencies --     24.2029                28.4920                31.9440
 Red. masses --      4.6442                 4.0617                 2.8655
 Frc consts  --      0.0016                 0.0019                 0.0017
 IR Inten    --      0.2798                 0.6096                 0.0353

                      4                      5                      6
                      A                      A                      A
 Frequencies --     44.5273                86.9323               109.9144
 Red. masses --      4.1548                 3.4934                 2.3292
 Frc consts  --      0.0049                 0.0156                 0.0166
 IR Inten    --      0.3528                 0.7723                 0.0274

                      7                      8                      9
                      A                      A                      A
 Frequencies --    120.6106               137.0993               217.9092
 Red. masses --      3.4044                 2.0084                 1.4769
 Frc consts  --      0.0292                 0.0222                 0.0413
 IR Inten    --      0.2645                 0.1301                 0.0591

                     10                     11                     12
                      A                      A                      A
 Frequencies --    232.0042               257.6803               261.3489
 Red. masses --      1.9558                 1.7766                 2.4166
 Frc consts  --      0.0620                 0.0695                 0.0973
 IR Inten    --      1.2898                 0.0452                 0.7580

                     13                     14                     15
                      A                      A                      A
 Frequencies --    291.8587               307.1205               346.6906
 Red. masses --      1.9075                 2.2451                 2.8379
 Frc consts  --      0.0957                 0.1248                 0.2010
 IR Inten    --      0.7253                 0.7520                 0.1718

                     16                     17                     18
                      A                      A                      A
 Frequencies --    431.1376               514.2050               517.6205
 Red. masses --      2.8347                 3.0294                 1.7248
 Frc consts  --      0.3105                 0.4719                 0.2723
 IR Inten    --      5.3922                13.8627                21.2722

                     19                     20                     21
                      A                      A                      A
 Frequencies --    571.5866               624.1237               679.4916
 Red. masses --      2.2795                 3.0783                 1.3822
 Frc consts  --      0.4388                 0.7065                 0.3760
 IR Inten    --     12.0027                10.7002                96.9958

                     22                     23                     24
                      A                      A                      A
 Frequencies --    738.9382               751.3232               779.5433
 Red. masses --      1.3688                 1.2657                 1.3642
 Frc consts  --      0.4404                 0.4210                 0.4884
 IR Inten    --      9.9798                 8.5956                 1.7716

                     25                     26                     27
                      A                      A                      A
 Frequencies --    786.3712               835.2988               846.0870
 Red. masses --      1.2942                 2.5951                 2.1223
 Frc consts  --      0.4715                 1.0668                 0.8951
 IR Inten    --      4.3281                 3.4451                 1.7960

                     28                     29                     30
                      A                      A                      A
 Frequencies --    882.2698               893.6622               929.5089
 Red. masses --      1.9468                 2.0871                 1.5889
 Frc consts  --      0.8929                 0.9821                 0.8088
 IR Inten    --      1.5484                 3.4828                 8.1779

                     31                     32                     33
                      A                      A                      A
 Frequencies --    966.4596               993.1673              1030.0365
 Red. masses --      1.7069                 1.5375                 1.7553
 Frc consts  --      0.9393                 0.8935                 1.0973
 IR Inten    --      2.4364                 1.8682                 1.1671

                     34                     35                     36
                      A                      A                      A
 Frequencies --   1041.4673              1062.2594              1078.9515
 Red. masses --      2.7112                 1.5482                 2.1983
 Frc consts  --      1.7326                 1.0293                 1.5078
 IR Inten    --      1.1824                 1.4586                 6.2806

                     37                     38                     39
                      A                      A                      A
 Frequencies --   1091.5134              1105.7976              1129.1231
 Red. masses --      2.0874                 2.1723                 1.6990
 Frc consts  --      1.4653                 1.5650                 1.2762
 IR Inten    --      6.9895                 0.5382                96.9418

                     40                     41                     42
                      A                      A                      A
 Frequencies --   1147.3492              1169.0673              1192.2932
 Red. masses --      1.7275                 2.1500                 1.7041
 Frc consts  --      1.3399                 1.7313                 1.4273
 IR Inten    --      5.8178               129.9957                69.0303

                     43                     44                     45
                      A                      A                      A
 Frequencies --   1230.1820              1246.3387              1275.0743
 Red. masses --      1.4735                 1.3258                 1.3742
 Frc consts  --      1.3138                 1.2134                 1.3164
 IR Inten    --     22.6244                 1.7445                 2.0191

                     46                     47                     48
                      A                      A                      A
 Frequencies --   1303.1292              1313.1739              1324.4182
 Red. masses --      1.3067                 1.3180                 1.4390
 Frc consts  --      1.3074                 1.3391                 1.4872
 IR Inten    --      0.1586                 0.9059                10.7227

                     49                     50                     51
                      A                      A                      A
 Frequencies --   1327.8328              1340.1113              1349.5818
 Red. masses --      1.2066                 1.1456                 1.2509
 Frc consts  --      1.2534                 1.2122                 1.3424
 IR Inten    --      1.3276                 7.0260                 1.9942

                     52                     53                     54
                      A                      A                      A
 Frequencies --   1353.8744              1367.3450              1386.2097
 Red. masses --      1.2025                 1.1645                 1.3806
 Frc consts  --      1.2986                 1.2828                 1.5630
 IR Inten    --      0.4676                 2.1329                 7.2094

                     55                     56                     57
                      A                      A                      A
 Frequencies --   1412.6436              1414.1655              1421.8940
 Red. masses --      1.5120                 1.5965                 1.5071
 Frc consts  --      1.7777                 1.8811                 1.7953
 IR Inten    --      1.4109                 1.6171                 1.2043

                     58                     59                     60
                      A                      A                      A
 Frequencies --   1427.3510              1430.0575              1470.9793
 Red. masses --      2.0525                 1.2899                 1.0973
 Frc consts  --      2.4637                 1.5542                 1.3988
 IR Inten    --     60.4454                 4.5112                15.6481

                     61                     62                     63
                      A                      A                      A
 Frequencies --   1493.6366              1495.2354              1499.2308
 Red. masses --      1.0715                 1.0814                 1.0847
 Frc consts  --      1.4085                 1.4244                 1.4364
 IR Inten    --      1.1388                 2.2230                 0.6241

                     64                     65                     66
                      A                      A                      A
 Frequencies --   1503.7132              1510.9466              1513.5134
 Red. masses --      1.0657                 1.0980                 1.0861
 Frc consts  --      1.4197                 1.4769                 1.4658
 IR Inten    --      0.7376                 2.7468                 0.5700

                     67                     68                     69
                      A                      A                      A
 Frequencies --   1514.3106              1518.0213              1523.7214
 Red. masses --      1.0911                 1.0650                 1.0632
 Frc consts  --      1.4742                 1.4459                 1.4543
 IR Inten    --      4.2626                 4.2383                 5.4000

                     70                     71                     72
                      A                      A                      A
 Frequencies --   1841.8104              3013.1205              3016.3669
 Red. masses --      9.6065                 1.0609                 1.0670
 Frc consts  --     19.2002                 5.6749                 5.7198
 IR Inten    --    230.4632                 2.5574                16.1221

                     73                     74                     75
                      A                      A                      A
 Frequencies --   3020.4927              3025.1891              3026.3997
 Red. masses --      1.0629                 1.0624                 1.0624
 Frc consts  --      5.7137                 5.7284                 5.7331
 IR Inten    --     40.1277                47.7803                23.7193

                     76                     77                     78
                      A                      A                      A
 Frequencies --   3028.0592              3040.6396              3045.4520
 Red. masses --      1.0626                 1.0384                 1.0685
 Frc consts  --      5.7408                 5.6563                 5.8387
 IR Inten    --     38.8273                21.2563                19.5932

                     79                     80                     81
                      A                      A                      A
 Frequencies --   3048.1619              3051.3214              3055.0804
 Red. masses --      1.0924                 1.0965                 1.0638
 Frc consts  --      5.9801                 6.0149                 5.8500
 IR Inten    --      9.0883                 8.5222                 7.0498

                     82                     83                     84
                      A                      A                      A
 Frequencies --   3060.6799              3075.8593              3078.1183
 Red. masses --      1.1004                 1.0989                 1.1010
 Frc consts  --      6.0733                 6.1254                 6.1462
 IR Inten    --     16.7360                40.4618                89.0638

                     85                     86                     87
                      A                      A                      A
 Frequencies --   3081.6717              3087.8622              3104.2220
 Red. masses --      1.0996                 1.0970                 1.1034
 Frc consts  --      6.1523                 6.1625                 6.2644
 IR Inten    --     40.9220                18.6194                45.1857

                     88                     89                     90
                      A                      A                      A
 Frequencies --   3108.0828              3117.7129              3751.1790
 Red. masses --      1.1015                 1.1018                 1.0641
 Frc consts  --      6.2695                 6.3097                 8.8217
 IR Inten    --     50.7785                49.7965                47.0146

 - Thermochemistry -
 -------------------
 Temperature   298.150 Kelvin.  Pressure   1.00000 Atm.
 Atom     1 has atomic number  8 and mass  15.99491

 Molecular mass:   172.14633 amu.
 Principal axes and moments of inertia in atomic units:
                           1         2         3
     Eigenvalues --   641.835387899.283488100.84233
           X            0.99996  -0.00837   0.00110
           Y            0.00840   0.99951  -0.03006
           Z           -0.00085   0.03007   0.99955
 This molecule is an asymmetric top.
 Rotational symmetry number  1.
 Warning -- assumption of classical behavior for rotation
           may cause significant error
 Rotational temperatures (Kelvin)      0.13495     0.01096     0.01069
 Rotational constants (GHZ):           2.81184     0.22847     0.22278
 Zero-point vibrational energy     765198.3 (Joules/Mol)
                                  182.88678 (Kcal/Mol)
 Warning -- explicit consideration of  19 degrees of freedom as
           vibrations may cause significant error
 Vibrational temperatures:     34.82    40.99    45.96    64.06   125.08
          (Kelvin)            158.14   173.53   197.26   313.52   333.80
                              370.74   376.02   419.92   441.88   498.81
                              620.31   739.83   744.74   822.39   897.97
                              977.64  1063.17  1080.99  1121.59  1131.41
                             1201.81  1217.33  1269.39  1285.78  1337.36
                             1390.52  1428.95  1481.99  1498.44  1528.35
                             1552.37  1570.44  1591.00  1624.56  1650.78
                             1682.03  1715.44  1769.96  1793.20  1834.55
                             1874.91  1889.36  1905.54  1910.46  1928.12
                             1941.75  1947.92  1967.30  1994.45  2032.48
                             2034.67  2045.79  2053.64  2057.53  2116.41
                             2149.01  2151.31  2157.06  2163.51  2173.92
                             2177.61  2178.76  2184.09  2192.30  2649.95
                             4335.21  4339.88  4345.82  4352.57  4354.31
                             4356.70  4374.80  4381.73  4385.63  4390.17
                             4395.58  4403.64  4425.48  4428.73  4433.84
                             4442.75  4466.28  4471.84  4485.69  5397.11

 Zero-point correction=                           0.291449 (Hartree/Particle)
 Thermal correction to Energy=                    0.306153
 Thermal correction to Enthalpy=                  0.307097
 Thermal correction to Gibbs Free Energy=         0.246808
 Sum of electronic and zero-point Energies=           -543.376497
 Sum of electronic and thermal Energies=              -543.361793
 Sum of electronic and thermal Enthalpies=            -543.360849
 Sum of electronic and thermal Free Energies=         -543.421138

                     E (Thermal)             CV                S
                      KCal/Mol        Cal/Mol-Kelvin    Cal/Mol-Kelvin
 Total                  192.114             52.497            126.888
 Electronic               0.000              0.000              0.000
 Translational            0.889              2.981             41.337
 Rotational               0.889              2.981             32.085
 Vibrational            190.336             46.535             53.466
 Vibration     1          0.593              1.985              6.256
 Vibration     2          0.593              1.984              5.932
 Vibration     3          0.594              1.983              5.705
 Vibration     4          0.595              1.980              5.047
 Vibration     5          0.601              1.958              3.728
 Vibration     6          0.606              1.941              3.270
 Vibration     7          0.609              1.932              3.091
 Vibration     8          0.614              1.916              2.844
 Vibration     9          0.646              1.814              1.976
 Vibration    10          0.653              1.792              1.863
 Vibration    11          0.667              1.750              1.677
 Vibration    12          0.669              1.743              1.653
 Vibration    13          0.687              1.689              1.463
 Vibration    14          0.697              1.660              1.378
 Vibration    15          0.725              1.582              1.181
 Vibration    16          0.792              1.402              0.855
 Vibration    17          0.869              1.219              0.624
 Vibration    18          0.873              1.211              0.616
 Vibration    19          0.928              1.093              0.501

 Optimization completed.
    -- Stationary point found.
 Normal termination of Gaussian 16 at Thu Feb  3 10:21:30 2022.

 ----------------------------------------------------------------------
 # M062X/def2tzvp int=(grid=ultrafine) pop=nbo7 polar prop=efg volume g
 uess=read geom=check
 ----------------------------------------------------------------------

 -------
 Ac1.xyz
 -------
 Structure from the checkpoint file:  "Ac1_clust-36.chk"
 Charge =  0 Multiplicity = 1

 SCF Done:  E(RM062X) =  -543.542894919     A.U. after   11 cycles

  Exact polarizability:     156.936      -3.380     114.623      -1.336      -1.202     106.627
 Approx polarizability:     148.058      -3.585     149.371      -2.050      -0.137     137.556

 Summary of Natural Population Analysis:

                                     Natural Population
             Natural    ---------------------------------------------
  Atom No    Charge        Core      Valence    Rydberg      Total
 --------------------------------------------------------------------
    O  1   -0.68715      2.00000     6.66519    0.02197     8.68715
    C  2    0.79714      1.99999     3.16593    0.03694     5.20286
    C  3   -0.51121      1.99999     4.49836    0.01286     6.51121
    C  4   -0.39786      1.99999     4.38557    0.01230     6.39786
    C  5   -0.39338      1.99999     4.38221    0.01118     6.39338
    C  6   -0.39369      1.99999     4.38250    0.01120     6.39369
    C  7   -0.39238      1.99999     4.38137    0.01102     6.39238
    C  8   -0.39291      1.99999     4.38169    0.01123     6.39291
    C  9   -0.39590      1.99999     4.38455    0.01136     6.39590
    C 10   -0.38904      1.99999     4.37879    0.01026     6.38904
    C 11   -0.60898      1.99999     4.60018    0.00880     6.60898
    O 12   -0.60209      2.00000     6.57567    0.02643     8.60209
    H 13    0.49267      0.00000     0.50392    0.00341     0.50733
    H 14    0.24089      0.00000     0.75793    0.00118     0.75911
    H 15    0.23107      0.00000     0.76740    0.00153     0.76893
    H 16    0.20485      0.00000     0.79363    0.00152     0.79515
    H 17    0.21594      0.00000     0.78218    0.00188     0.78406
    H 18    0.21500      0.00000     0.78326    0.00173     0.78500
    H 19    0.18888      0.00000     0.80915    0.00198     0.81112
    H 20    0.19885      0.00000     0.79932    0.00182     0.80115
    H 21    0.20076      0.00000     0.79754    0.00170     0.79924
    H 22    0.19787      0.00000     0.80039    0.00174     0.80213
    H 23    0.19209      0.00000     0.80599    0.00192     0.80791
    H 24    0.19851      0.00000     0.79973    0.00176     0.80149
    H 25    0.19412      0.00000     0.80393    0.00195     0.80588
    H 26    0.19845      0.00000     0.79989    0.00166     0.80155
    H 27    0.19486      0.00000     0.80327    0.00187     0.80514
    H 28    0.19207      0.00000     0.80605    0.00188     0.80793
    H 29    0.19985      0.00000     0.79860    0.00155     0.80015
    H 30    0.20920      0.00000     0.78984    0.00095     0.79080
    H 31    0.20046      0.00000     0.79822    0.00132     0.79954
    H 32    0.20106      0.00000     0.79779    0.00115     0.79894
 ====================================================================
 * Total *  0.00000     23.99992    71.78002    0.22006    96.00000

 1\1\GINC-NOTCH075\SP\RM062X\def2TZVP\C10H20O2\U6032257\03-Feb-2022\0\\
 # M062X/def2tzvp int=(grid=ultrafine) pop=nbo7 polar prop=efg volume g
 uess=read geom=check\\Ac1.xyz\\0,1\O,0,5.7829043962,-0.021915405,1.363
 0864788\C,0,4.9866392749,-0.1956762498,0.278793713\C,0,3.9170704465,-1
 .2338808626,0.5354359226\C,0,3.1751441433,-1.6599753941,-0.731870309\C
 ,0,4.0429590797,-2.4894282125,-1.6853935363\C,0,3.3442812617,-2.854832
 7869,-3.0009030668\C,0,2.1225038123,-3.7668126783,-2.8331981742\C,0,1.
 5325652392,-4.2680156274,-4.1581692155\C,0,0.9558879789,-3.1567433609,

 Normal termination of Gaussian 16 at Thu Feb  3 10:24:40 2022.
 Gaussian 16:  ES64L-G16RevC.01  3-Jul-2019

 --------------------------------------------------------------------
 # M062X/def2tzvp int=(grid=ultrafine) nmr=giao guess=read geom=check
 --------------------------------------------------------------------

 -------
 Ac1.xyz
 -------
 Structure from the checkpoint file:  "Ac1_clust-36.chk"
 Charge =  0 Multiplicity = 1

                         Standard orientation:
 ---------------------------------------------------------------------
 Center     Atomic      Atomic             Coordinates (Angstroms)
 Number     Number       Type             X           Y           Z
 ---------------------------------------------------------------------
      1          8           0        5.304896    0.164277   -0.215506
      2          6           0        4.020201    0.437611    0.123270
      3          6           0        3.249903   -0.823708    0.444868
      4          6           0        1.742658   -0.595048    0.563203
      5          6           0        1.075369   -0.283173   -0.781327
      6          6           0       -0.421416    0.033106   -0.672519
      7          6           0       -1.278068   -1.137435   -0.173970
      8          6           0       -2.788519   -0.872741   -0.231014
      9          6           0       -3.259032    0.256372    0.694031
     10          6           0       -4.784062    0.416984    0.759892
     11          6           0       -5.424301    0.831485   -0.568287
     12          8           0        3.590962    1.569867    0.171390
     13          1           0        5.726937    1.024905   -0.377714
     14          1           0        3.665988   -1.213054    1.383027
     15          1           0        3.486935   -1.573788   -0.318388
     16          1           0        1.293032   -1.488633    1.008666
     17          1           0        1.564183    0.234184    1.256979
     18          1           0        1.586558    0.573086   -1.233980
     19          1           0        1.219478   -1.135015   -1.461635
     20          1           0       -0.552083    0.900091   -0.013001
     21          1           0       -0.790594    0.343093   -1.659371
     22          1           0       -1.047531   -2.024965   -0.779093
     23          1           0       -1.000833   -1.390713    0.857675
     24          1           0       -3.323371   -1.793742    0.038250
     25          1           0       -3.070869   -0.647625   -1.267526
     26          1           0       -2.875761    0.064470    1.705588
     27          1           0       -2.814966    1.208205    0.375302
     28          1           0       -5.231342   -0.525948    1.102776
     29          1           0       -5.028214    1.165532    1.523927
     30          1           0       -6.500997    0.993221   -0.455446
     31          1           0       -4.984201    1.763674   -0.940922
     32          1           0       -5.285600    0.069159   -1.341059
 ---------------------------------------------------------------------

 SCF Done:  E(RM062X) =  -543.542894919     A.U. after    1 cycles

      1  O    Isotropic =   102.2094   Anisotropy =   243.5909

      2  C    Isotropic =    -9.3475   Anisotropy =   123.1679

      3  C    Isotropic =   150.3888   Anisotropy =    36.2554

      4  C    Isotropic =   161.3473   Anisotropy =    16.6714

      5  C    Isotropic =   153.9653   Anisotropy =    25.6842

      6  C    Isotropic =   154.5526   Anisotropy =    23.4517

      7  C    Isotropic =   154.0148   Anisotropy =    23.4076

      8  C    Isotropic =   154.3987   Anisotropy =    23.6195

      9  C    Isotropic =   153.2028   Anisotropy =    24.3677

     10  C    Isotropic =   160.2501   Anisotropy =    18.1885

     11  C    Isotropic =   172.5277   Anisotropy =    21.5308

     12  O    Isotropic =  -160.5383   Anisotropy =   655.1045

     13  H    Isotropic =    25.7112   Anisotropy =    11.6172

     14  H    Isotropic =    29.5046   Anisotropy =     8.5856

     15  H    Isotropic =    29.7090   Anisotropy =     6.6373

     16  H    Isotropic =    30.4485   Anisotropy =     6.7795

     17  H    Isotropic =    30.3951   Anisotropy =     5.8907

     18  H    Isotropic =    30.0605   Anisotropy =     7.5064

     19  H    Isotropic =    31.0836   Anisotropy =     6.6078

     20  H    Isotropic =    30.3933   Anisotropy =     5.5446

     21  H    Isotropic =    30.7852   Anisotropy =     7.1410

     22  H    Isotropic =    30.7408   Anisotropy =     7.3143

     23  H    Isotropic =    30.4787   Anisotropy =     5.4459

     24  H    Isotropic =    30.7733   Anisotropy =     7.7811

     25  H    Isotropic =    30.4373   Anisotropy =     5.7990

     26  H    Isotropic =    30.7427   Anisotropy =     6.7152

     27  H    Isotropic =    30.5141   Anisotropy =     5.3040

     28  H    Isotropic =    30.7216   Anisotropy =     8.0522

     29  H    Isotropic =    30.3217   Anisotropy =     9.5951

     30  H    Isotropic =    30.8920   Anisotropy =    11.1094

     31  H    Isotropic =    31.3436   Anisotropy =     8.4413

     32  H    Isotropic =    30.8223   Anisotropy =     6.8884

 The electronic state is 1-A.
 Alpha  occ. eigenvalues --  -19.67566 -19.62224 -10.68042 -10.55547 -10.53651
 Alpha  occ. eigenvalues --  -10.52811 -10.52707 -10.52678 -10.52604 -10.52571
 Alpha  occ. eigenvalues --  -10.52473 -10.51946  -1.23643  -1.14099  -0.91812
 Alpha  occ. eigenvalues --   -0.89973  -0.86775  -0.82607  -0.77613  -0.74285
 Alpha  occ. eigenvalues --   -0.69867  -0.67140  -0.65272  -0.63090  -0.58702
 Alpha  occ. eigenvalues --   -0.57760  -0.55719  -0.54116  -0.52424  -0.50901
 Alpha  occ. eigenvalues --   -0.50603  -0.49884  -0.47854  -0.47636  -0.46447
 Alpha  occ. eigenvalues --   -0.44259  -0.43640  -0.42977  -0.41501  -0.40748
 Alpha  occ. eigenvalues --   -0.40167  -0.39137  -0.38900  -0.38053  -0.37026
 Alpha  occ. eigenvalues --   -0.36480  -0.36258  -0.35664
 Alpha virt. eigenvalues --    0.04300   0.06263   0.06844   0.07736   0.08661
 Alpha virt. eigenvalues --    0.08940   0.09323   0.10685   0.11869   0.12278
 Alpha virt. eigenvalues --    0.13138   0.13786   0.14159   0.14986   0.15233

 Mulliken charges:
               1
     1  O   -0.409222
     2  C    0.343895
     3  C   -0.330860
     4  C   -0.279965
     5  C   -0.299623
     6  C   -0.301922
     7  C   -0.295260
     8  C   -0.298419
     9  C   -0.289750
    10  C   -0.245555
    11  C   -0.442498
    12  O   -0.337832
    13  H    0.334432
    14  H    0.175940
    15  H    0.173519
    16  H    0.149477
    17  H    0.165649
    18  H    0.167682
    19  H    0.143715
    20  H    0.159887
    21  H    0.146717
    22  H    0.144196
    23  H    0.149459
    24  H    0.143417
    25  H    0.151237
    26  H    0.139681
    27  H    0.150838
    28  H    0.134606
    29  H    0.135000
    30  H    0.142162
    31  H    0.137605
    32  H    0.141792
 Sum of Mulliken charges =  -0.00000

 Dipole moment (field-independent basis, Debye):
    X=              0.3837    Y=             -1.3821    Z=              0.0332  Tot=              1.4348
 Quadrupole moment (field-independent basis, Debye-Ang):
   XX=            -72.2697   YY=            -79.9100   ZZ=            -76.6979
   XY=             -1.0717   XZ=             -0.9925   YZ=             -1.3629

 1\1\GINC-NOTCH075\SP\RM062X\def2TZVP\C10H20O2\U6032257\03-Feb-2022\0\\
 # M062X/def2tzvp int=(grid=ultrafine) nmr=giao guess=read geom=check\\
 Ac1.xyz\\0,1\O,0,5.7829043962,-0.021915405,1.3630864788\C,0,4.98663927
 49,-0.1956762498,0.278793713\C,0,3.9170704465,-1.2338808626,0.53543592
 26\C,0,3.1751441433,-1.6599753941,-0.731870309\C,0,4.0429590797,-2.489
 4282125,-1.6853935363\C,0,3.3442812617,-2.8548327869,-3.0009030668\C,0
 ,2.1225038123,-3.7668126783,-2.8331981742\C,0,1.5325652392,-4.26801562
 74,-4.1581692155\C,0,0.9558879789,-3.1567433609,-5.043891694\C,0,0.223

 Normal termination of Gaussian 16 at Thu Feb  3 10:25:58 2022.
