 Gaussian 16, Revision C.01,

 ----------------------------------------------------------------------
 # B3LYP/6-31G(d,p) empiricaldispersion=GD3BJ int=(grid=ultrafine) opt
 freq=noraman
 ----------------------------------------------------------------------

 -------
 Ac1.xyz
 -------
 Symbolic Z-matrix:
 Charge =  0 Multiplicity = 1

 SCF Done:  E(RB3LYP) =  -543.665221149     A.U. after   13 cycles
 SCF Done:  E(RB3LYP) =  -543.667881813     A.U. after   12 cycles
 SCF Done:  E(RB3LYP) =  -543.667353270     A.U. after   12 cycles
 SCF Done:  E(RB3LYP) =  -543.668176464     A.U. after   11 cycles
 SCF Done:  E(RB3LYP) =  -543.668203528     A.U. after   11 cycles
 SCF Done:  E(RB3LYP) =  -543.668212884     A.U. after   11 cycles
 SCF Done:  E(RB3LYP) =  -543.668223098     A.U. after    9 cycles
 SCF Done:  E(RB3LYP) =  -543.668235961     A.U. after   10 cycles
 SCF Done:  E(RB3LYP) =  -543.668243636     A.U. after   10 cycles
 SCF Done:  E(RB3LYP) =  -543.668244579     A.U. after    7 cycles
 SCF Done:  E(RB3LYP) =  -543.668244246     A.U. after    7 cycles
 SCF Done:  E(RB3LYP) =  -543.668244351     A.U. after    7 cycles
 SCF Done:  E(RB3LYP) =  -543.668244521     A.U. after    7 cycles
 SCF Done:  E(RB3LYP) =  -543.668244267     A.U. after    6 cycles
 Optimization completed.
    -- Stationary point found.
 Normal termination of Gaussian 16 at Thu Feb  3 09:40:46 2022.

 ----------------------------------------------------------------------
 #N Geom=AllCheck Guess=TCheck SCRF=Check GenChk RB3LYP/6-31G(d,p) Freq
 ----------------------------------------------------------------------

 Structure from the checkpoint file:  "Ac1_clust-31.chk"
 -------
 Ac1.xyz
 -------
 Charge =  0 Multiplicity = 1

 SCF Done:  E(RB3LYP) =  -543.668244267     A.U. after    1 cycles

                      1                      2                      3
                      A                      A                      A
 Frequencies --     24.6288                27.1543                36.4914
 Red. masses --      3.7719                 7.2396                 3.9503
 Frc consts  --      0.0013                 0.0031                 0.0031
 IR Inten    --      0.0266                 0.8239                 0.6764

                      4                      5                      6
                      A                      A                      A
 Frequencies --     66.0797                75.7848                88.1180
 Red. masses --      2.0557                 3.6997                 2.9460
 Frc consts  --      0.0053                 0.0125                 0.0135
 IR Inten    --      0.4675                 0.2619                 0.4633

                      7                      8                      9
                      A                      A                      A
 Frequencies --    125.1419               148.6986               204.4203
 Red. masses --      2.2325                 2.8277                 2.5395
 Frc consts  --      0.0206                 0.0368                 0.0625
 IR Inten    --      0.1132                 0.0346                 0.0117

                     10                     11                     12
                      A                      A                      A
 Frequencies --    244.9730               246.9957               270.8554
 Red. masses --      1.8922                 1.3588                 1.8604
 Frc consts  --      0.0669                 0.0488                 0.0804
 IR Inten    --      0.1120                 0.0442                 0.1266

                     13                     14                     15
                      A                      A                      A
 Frequencies --    292.6012               319.2471               394.3692
 Red. masses --      2.8402                 2.4991                 2.0721
 Frc consts  --      0.1433                 0.1501                 0.1899
 IR Inten    --      0.2530                 0.0745                 1.4202

                     16                     17                     18
                      A                      A                      A
 Frequencies --    437.5636               507.2725               517.1823
 Red. masses --      2.5067                 2.5298                 2.5339
 Frc consts  --      0.2828                 0.3835                 0.3993
 IR Inten    --      2.6511                 0.9409                 0.5290

                     19                     20                     21
                      A                      A                      A
 Frequencies --    564.8364               634.7780               723.7020
 Red. masses --      3.5606                 1.3362                 1.4122
 Frc consts  --      0.6693                 0.3172                 0.4358
 IR Inten    --     41.5898                73.2829                 8.6344

                     22                     23                     24
                      A                      A                      A
 Frequencies --    736.4209               744.5446               767.3173
 Red. masses --      1.2342                 1.6257                 1.3482
 Frc consts  --      0.3944                 0.5310                 0.4677
 IR Inten    --     17.2993                26.2365                12.7834

                     25                     26                     27
                      A                      A                      A
 Frequencies --    819.1576               833.5476               855.7242
 Red. masses --      1.7219                 2.7765                 1.9839
 Frc consts  --      0.6807                 1.1366                 0.8559
 IR Inten    --      4.1400                 3.1521                 0.7500

                     28                     29                     30
                      A                      A                      A
 Frequencies --    867.6658               913.7772               942.4617
 Red. masses --      1.6155                 1.5066                 2.2412
 Frc consts  --      0.7166                 0.7412                 1.1729
 IR Inten    --      2.4366                 1.2604                 2.9457

                     31                     32                     33
                      A                      A                      A
 Frequencies --    970.0600               992.9197              1003.0506
 Red. masses --      1.9030                 1.6089                 1.9141
 Frc consts  --      1.0551                 0.9346                 1.1347
 IR Inten    --      5.3940                12.5030                 7.8093

                     34                     35                     36
                      A                      A                      A
 Frequencies --   1040.2214              1051.6533              1076.0826
 Red. masses --      2.2253                 1.6230                 2.0868
 Frc consts  --      1.4187                 1.0576                 1.4237
 IR Inten    --      3.2606                 1.8545                25.1097

                     37                     38                     39
                      A                      A                      A
 Frequencies --   1092.7334              1104.7467              1117.3589
 Red. masses --      2.2770                 2.3089                 1.3227
 Frc consts  --      1.6019                 1.6603                 0.9730
 IR Inten    --      0.6944                 9.2861                59.7084

                     40                     41                     42
                      A                      A                      A
 Frequencies --   1139.3394              1175.3612              1198.8463
 Red. masses --      1.9615                 1.7994                 1.5995
 Frc consts  --      1.5002                 1.4646                 1.3545
 IR Inten    --      4.7931                70.0410                 1.4369

                     43                     44                     45
                      A                      A                      A
 Frequencies --   1228.8775              1246.8341              1273.9603
 Red. masses --      1.5412                 1.3698                 1.3547
 Frc consts  --      1.3713                 1.2546                 1.2954
 IR Inten    --     44.1087                48.4933                 3.1692

                     46                     47                     48
                      A                      A                      A
 Frequencies --   1297.1354              1305.2479              1323.6449
 Red. masses --      1.3052                 1.2861                 1.2787
 Frc consts  --      1.2939                 1.2910                 1.3199
 IR Inten    --      1.2900                 0.4297                 8.5571

                     49                     50                     51
                      A                      A                      A
 Frequencies --   1334.4707              1340.0796              1350.2727
 Red. masses --      1.2028                 1.1802                 1.2062
 Frc consts  --      1.2620                 1.2487                 1.2957
 IR Inten    --      1.2793                 7.3957                 6.1907

                     52                     53                     54
                      A                      A                      A
 Frequencies --   1353.5429              1368.6723              1391.6567
 Red. masses --      1.1581                 1.5806                 1.5162
 Frc consts  --      1.2501                 1.7445                 1.7301
 IR Inten    --      4.1068                18.7601                12.0539

                     55                     56                     57
                      A                      A                      A
 Frequencies --   1402.5408              1411.6344              1413.2801
 Red. masses --      1.4272                 1.6867                 1.5527
 Frc consts  --      1.6541                 1.9803                 1.8272
 IR Inten    --      8.7240                16.7259                 1.3577

                     58                     59                     60
                      A                      A                      A
 Frequencies --   1422.2936              1427.5446              1487.8553
 Red. masses --      1.5615                 1.2612                 1.0950
 Frc consts  --      1.8612                 1.5143                 1.4283
 IR Inten    --      8.5593                 2.3023                 3.9891

                     61                     62                     63
                      A                      A                      A
 Frequencies --   1497.0953              1501.2248              1504.5397
 Red. masses --      1.0773                 1.0786                 1.0857
 Frc consts  --      1.4227                 1.4322                 1.4480
 IR Inten    --      0.8480                 2.0263                 8.3242

                     64                     65                     66
                      A                      A                      A
 Frequencies --   1509.4206              1510.2426              1512.9645
 Red. masses --      1.0778                 1.0837                 1.0909
 Frc consts  --      1.4467                 1.4563                 1.4712
 IR Inten    --      2.1654                 2.3390                 1.1379

                     67                     68                     69
                      A                      A                      A
 Frequencies --   1514.2051              1524.5080              1527.2358
 Red. masses --      1.0419                 1.0835                 1.0932
 Frc consts  --      1.4075                 1.4837                 1.5024
 IR Inten    --      5.6196                 4.3816                 2.6688

                     70                     71                     72
                      A                      A                      A
 Frequencies --   1842.3081              3012.1792              3016.3222
 Red. masses --      9.4922                 1.0595                 1.0637
 Frc consts  --     18.9821                 5.6638                 5.7019
 IR Inten    --    239.0675                 7.7704                 7.0906

                     73                     74                     75
                      A                      A                      A
 Frequencies --   3021.0488              3027.8919              3029.2201
 Red. masses --      1.0612                 1.0634                 1.0618
 Frc consts  --      5.7062                 5.7442                 5.7406
 IR Inten    --     21.8831                25.4930                33.9141

                     76                     77                     78
                      A                      A                      A
 Frequencies --   3037.2196              3037.6509              3044.0769
 Red. masses --      1.0388                 1.0617                 1.0985
 Frc consts  --      5.6461                 5.7723                 5.9975
 IR Inten    --     58.7573                30.5334                 0.3899

                     79                     80                     81
                      A                      A                      A
 Frequencies --   3047.7269              3053.8817              3062.5851
 Red. masses --      1.0942                 1.0714                 1.0971
 Frc consts  --      5.9881                 5.8872                 6.0630
 IR Inten    --     16.7106                 7.8476                39.0177

                     82                     83                     84
                      A                      A                      A
 Frequencies --   3069.1909              3072.1847              3073.6418
 Red. masses --      1.0959                 1.1021                 1.0642
 Frc consts  --      6.0822                 6.1288                 5.9235
 IR Inten    --     18.9623                49.4658                14.8600

                     85                     86                     87
                      A                      A                      A
 Frequencies --   3086.4548              3098.3066              3106.3352
 Red. masses --      1.1022                 1.1044                 1.1028
 Frc consts  --      6.1865                 6.2464                 6.2698
 IR Inten    --     92.9148                34.6156                64.7742

                     88                     89                     90
                      A                      A                      A
 Frequencies --   3111.5690              3141.2078              3752.3485
 Red. masses --      1.1019                 1.1007                 1.0641
 Frc consts  --      6.2857                 6.3992                 8.8275
 IR Inten    --     42.6702                19.2815                50.7385

 - Thermochemistry -
 -------------------
 Temperature   298.150 Kelvin.  Pressure   1.00000 Atm.
 Atom     1 has atomic number  8 and mass  15.99491

 Molecular mass:   172.14633 amu.
 Principal axes and moments of inertia in atomic units:
                           1         2         3
     Eigenvalues --   815.586626571.004726729.07541
           X            0.99997   0.00466  -0.00580
           Y           -0.00449   0.99957   0.02901
           Z            0.00594  -0.02898   0.99956
 This molecule is an asymmetric top.
 Rotational symmetry number  1.
 Warning -- assumption of classical behavior for rotation
           may cause significant error
 Rotational temperatures (Kelvin)      0.10620     0.01318     0.01287
 Rotational constants (GHZ):           2.21281     0.27465     0.26820
 Zero-point vibrational energy     766317.1 (Joules/Mol)
                                  183.15418 (Kcal/Mol)
 Warning -- explicit consideration of  19 degrees of freedom as
           vibrations may cause significant error
 Vibrational temperatures:     35.44    39.07    52.50    95.07   109.04
          (Kelvin)            126.78   180.05   213.94   294.12   352.46
                              355.37   389.70   420.99   459.33   567.41
                              629.56   729.85   744.11   812.67   913.30
                             1041.25  1059.55  1071.23  1104.00  1178.59
                             1199.29  1231.20  1248.38  1314.72  1355.99
                             1395.70  1428.59  1443.17  1496.65  1513.09
                             1548.24  1572.20  1589.48  1607.63  1639.26
                             1691.08  1724.87  1768.08  1793.92  1832.94
                             1866.29  1877.96  1904.43  1920.01  1928.08
                             1942.74  1947.45  1969.21  2002.28  2017.94
                             2031.03  2033.39  2046.36  2053.92  2140.69
                             2153.99  2159.93  2164.70  2171.72  2172.90
                             2176.82  2178.60  2193.43  2197.35  2650.67
                             4333.85  4339.81  4346.62  4356.46  4358.37
                             4369.88  4370.50  4379.75  4385.00  4393.85
                             4406.38  4415.88  4420.19  4422.28  4440.72
                             4457.77  4469.32  4476.85  4519.50  5398.79

 Zero-point correction=                           0.291875 (Hartree/Particle)
 Thermal correction to Energy=                    0.306479
 Thermal correction to Enthalpy=                  0.307423
 Thermal correction to Gibbs Free Energy=         0.247579
 Sum of electronic and zero-point Energies=           -543.376369
 Sum of electronic and thermal Energies=              -543.361765
 Sum of electronic and thermal Enthalpies=            -543.360821
 Sum of electronic and thermal Free Energies=         -543.420666

                     E (Thermal)             CV                S
                      KCal/Mol        Cal/Mol-Kelvin    Cal/Mol-Kelvin
 Total                  192.318             52.274            125.953
 Electronic               0.000              0.000              0.000
 Translational            0.889              2.981             41.337
 Rotational               0.889              2.981             31.956
 Vibrational            190.541             46.313             52.660
 Vibration     1          0.593              1.985              6.221
 Vibration     2          0.593              1.984              6.027
 Vibration     3          0.594              1.982              5.441
 Vibration     4          0.597              1.970              4.267
 Vibration     5          0.599              1.965              3.997
 Vibration     6          0.601              1.958              3.701
 Vibration     7          0.610              1.928              3.019
 Vibration     8          0.618              1.904              2.689
 Vibration     9          0.640              1.834              2.093
 Vibration    10          0.660              1.771              1.766
 Vibration    11          0.661              1.768              1.752
 Vibration    12          0.675              1.727              1.591
 Vibration    13          0.688              1.688              1.459
 Vibration    14          0.705              1.637              1.314
 Vibration    15          0.761              1.482              0.984
 Vibration    16          0.798              1.388              0.834
 Vibration    17          0.862              1.234              0.640
 Vibration    18          0.872              1.212              0.617
 Vibration    19          0.921              1.107              0.514

 Optimization completed.
    -- Stationary point found.
 Normal termination of Gaussian 16 at Thu Feb  3 09:42:10 2022.

 ----------------------------------------------------------------------
 # M062X/def2tzvp int=(grid=ultrafine) pop=nbo7 polar prop=efg volume g
 uess=read geom=check
 ----------------------------------------------------------------------

 -------
 Ac1.xyz
 -------
 Structure from the checkpoint file:  "Ac1_clust-31.chk"
 Charge =  0 Multiplicity = 1

 SCF Done:  E(RM062X) =  -543.543133121     A.U. after   11 cycles

  Exact polarizability:     149.508       0.073     117.071      -3.694       1.794     109.007
 Approx polarizability:     145.683       1.558     150.784      -1.431       2.799     139.145

 Summary of Natural Population Analysis:

                                     Natural Population
             Natural    ---------------------------------------------
  Atom No    Charge        Core      Valence    Rydberg      Total
 --------------------------------------------------------------------
    O  1   -0.69468      2.00000     6.67243    0.02225     8.69468
    C  2    0.79693      1.99999     3.16477    0.03831     5.20307
    C  3   -0.51528      1.99999     4.50182    0.01347     6.51528
    C  4   -0.38759      1.99999     4.37687    0.01073     6.38759
    C  5   -0.39643      1.99999     4.38520    0.01124     6.39643
    C  6   -0.40213      1.99999     4.39048    0.01166     6.40213
    C  7   -0.40160      1.99999     4.39004    0.01156     6.40160
    C  8   -0.38657      1.99999     4.37552    0.01105     6.38657
    C  9   -0.38830      1.99999     4.37717    0.01114     6.38830
    C 10   -0.39695      1.99999     4.38665    0.01031     6.39695
    C 11   -0.60027      1.99999     4.59173    0.00855     6.60027
    O 12   -0.59738      2.00000     6.57100    0.02638     8.59738
    H 13    0.49376      0.00000     0.50282    0.00342     0.50624
    H 14    0.22792      0.00000     0.77061    0.00147     0.77208
    H 15    0.23592      0.00000     0.76281    0.00127     0.76408
    H 16    0.21643      0.00000     0.78208    0.00149     0.78357
    H 17    0.20804      0.00000     0.79038    0.00158     0.79196
    H 18    0.20365      0.00000     0.79460    0.00175     0.79635
    H 19    0.20466      0.00000     0.79375    0.00158     0.79534
    H 20    0.20953      0.00000     0.78851    0.00195     0.79047
    H 21    0.20459      0.00000     0.79379    0.00162     0.79541
    H 22    0.19495      0.00000     0.80311    0.00195     0.80505
    H 23    0.18914      0.00000     0.80885    0.00201     0.81086
    H 24    0.19313      0.00000     0.80490    0.00197     0.80687
    H 25    0.20201      0.00000     0.79633    0.00166     0.79799
    H 26    0.19119      0.00000     0.80685    0.00196     0.80881
    H 27    0.19937      0.00000     0.79892    0.00171     0.80063
    H 28    0.19361      0.00000     0.80455    0.00185     0.80639
    H 29    0.19430      0.00000     0.80401    0.00168     0.80570
    H 30    0.20024      0.00000     0.79849    0.00128     0.79976
    H 31    0.20012      0.00000     0.79857    0.00131     0.79988
    H 32    0.20767      0.00000     0.79136    0.00097     0.79233
 ====================================================================
 * Total *  0.00000     23.99992    71.77898    0.22111    96.00000

 1\1\GINC-NOTCH075\SP\RM062X\def2TZVP\C10H20O2\U6032257\03-Feb-2022\0\\
 # M062X/def2tzvp int=(grid=ultrafine) pop=nbo7 polar prop=efg volume g
 uess=read geom=check\\Ac1.xyz\\0,1\O,0,4.9553412406,-0.3370911808,1.10
 65804287\C,0,4.5931635432,-0.2245933136,-0.19732259\C,0,3.2012580547,-
 0.7544951887,-0.4391998108\C,0,3.129260424,-2.2853766165,-0.2633116707
 \C,0,4.1473331857,-3.0631250626,-1.1112329949\C,0,4.1162082114,-2.7558
 194263,-2.6151267423\C,0,2.7636187457,-3.0166917561,-3.2844876326\C,0,
 2.8011289896,-2.7899830359,-4.7995959882\C,0,1.4444023929,-2.942939682

 Normal termination of Gaussian 16 at Thu Feb  3 09:45:34 2022.
 Gaussian 16:  ES64L-G16RevC.01  3-Jul-2019

 --------------------------------------------------------------------
 # M062X/def2tzvp int=(grid=ultrafine) nmr=giao guess=read geom=check
 --------------------------------------------------------------------

 -------
 Ac1.xyz
 -------
 Structure from the checkpoint file:  "Ac1_clust-31.chk"
 Charge =  0 Multiplicity = 1

                         Standard orientation:
 ---------------------------------------------------------------------
 Center     Atomic      Atomic             Coordinates (Angstroms)
 Number     Number       Type             X           Y           Z
 ---------------------------------------------------------------------
      1          8           0       -4.533495   -0.347307   -0.263372
      2          6           0       -3.424637    0.402063   -0.493307
      3          6           0       -2.312700   -0.416120   -1.102302
      4          6           0       -1.746476   -1.449575   -0.106772
      5          6           0       -1.290182   -0.847677    1.231080
      6          6           0       -0.282990    0.305673    1.119495
      7          6           0        1.012455   -0.056651    0.387279
      8          6           0        2.028226    1.090752    0.381635
      9          6           0        3.301523    0.808397   -0.425908
     10          6           0        4.162300   -0.334448    0.123718
     11          6           0        5.462080   -0.525943   -0.660677
     12          8           0       -3.367180    1.576353   -0.199013
     13          1           0       -5.175804    0.249645    0.156187
     14          1           0       -1.540016    0.282875   -1.426644
     15          1           0       -2.700680   -0.936531   -1.984003
     16          1           0       -2.510616   -2.209914    0.084676
     17          1           0       -0.910340   -1.961501   -0.595154
     18          1           0       -2.171101   -0.493773    1.781611
     19          1           0       -0.856615   -1.652890    1.838033
     20          1           0       -0.759611    1.161956    0.627304
     21          1           0       -0.034229    0.645544    2.133166
     22          1           0        1.452369   -0.947109    0.855040
     23          1           0        0.792477   -0.337738   -0.651840
     24          1           0        2.301927    1.334915    1.417713
     25          1           0        1.541131    1.988111   -0.021981
     26          1           0        3.029304    0.585671   -1.467597
     27          1           0        3.910421    1.721626   -0.461424
     28          1           0        4.394038   -0.133598    1.178642
     29          1           0        3.590872   -1.270406    0.110859
     30          1           0        5.256886   -0.753444   -1.712851
     31          1           0        6.075659    0.381577   -0.634565
     32          1           0        6.061746   -1.346210   -0.253536
 ---------------------------------------------------------------------

 SCF Done:  E(RM062X) =  -543.543133121     A.U. after    1 cycles

      1  O    Isotropic =   104.1740   Anisotropy =   235.4678

      2  C    Isotropic =    -9.2871   Anisotropy =   130.0317

      3  C    Isotropic =   151.2498   Anisotropy =    41.5623

      4  C    Isotropic =   161.8440   Anisotropy =    15.6119

      5  C    Isotropic =   158.1424   Anisotropy =    14.9617

      6  C    Isotropic =   158.3099   Anisotropy =    29.1918

      7  C    Isotropic =   156.6289   Anisotropy =    21.6881

      8  C    Isotropic =   151.8571   Anisotropy =    25.8939

      9  C    Isotropic =   150.1992   Anisotropy =    27.4306

     10  C    Isotropic =   160.8765   Anisotropy =    16.2533

     11  C    Isotropic =   170.0051   Anisotropy =    28.7036

     12  O    Isotropic =  -179.4654   Anisotropy =   628.3216

     13  H    Isotropic =    25.8133   Anisotropy =    11.4485

     14  H    Isotropic =    29.6134   Anisotropy =     4.1229

     15  H    Isotropic =    29.5674   Anisotropy =     7.8392

     16  H    Isotropic =    30.0515   Anisotropy =     9.5820

     17  H    Isotropic =    30.2596   Anisotropy =     6.8710

     18  H    Isotropic =    30.4646   Anisotropy =     8.2531

     19  H    Isotropic =    30.5464   Anisotropy =     8.8751

     20  H    Isotropic =    30.1085   Anisotropy =     6.5445

     21  H    Isotropic =    30.7609   Anisotropy =     7.6320

     22  H    Isotropic =    30.7653   Anisotropy =     6.8302

     23  H    Isotropic =    30.9335   Anisotropy =     6.3816

     24  H    Isotropic =    30.7260   Anisotropy =     6.1203

     25  H    Isotropic =    30.4062   Anisotropy =     6.8052

     26  H    Isotropic =    30.7274   Anisotropy =     5.3330

     27  H    Isotropic =    30.4637   Anisotropy =     7.7329

     28  H    Isotropic =    30.9330   Anisotropy =     6.8470

     29  H    Isotropic =    30.3621   Anisotropy =     6.4359

     30  H    Isotropic =    31.0864   Anisotropy =     8.5573

     31  H    Isotropic =    31.0594   Anisotropy =     9.0848

     32  H    Isotropic =    30.7440   Anisotropy =    10.8960

 The electronic state is 1-A.
 Alpha  occ. eigenvalues --  -19.67597 -19.62168 -10.67941 -10.55357 -10.54477
 Alpha  occ. eigenvalues --  -10.53345 -10.52763 -10.52763 -10.52658 -10.52619
 Alpha  occ. eigenvalues --  -10.52596 -10.52118  -1.23586  -1.14008  -0.92195
 Alpha  occ. eigenvalues --   -0.90075  -0.86649  -0.82743  -0.78132  -0.73599
 Alpha  occ. eigenvalues --   -0.70049  -0.68427  -0.64829  -0.63872  -0.58343
 Alpha  occ. eigenvalues --   -0.57283  -0.55045  -0.54132  -0.53657  -0.51650
 Alpha  occ. eigenvalues --   -0.50140  -0.49534  -0.48210  -0.47046  -0.46236
 Alpha  occ. eigenvalues --   -0.45522  -0.44239  -0.42709  -0.41945  -0.40549
 Alpha  occ. eigenvalues --   -0.40236  -0.39878  -0.38664  -0.38035  -0.37651
 Alpha  occ. eigenvalues --   -0.36684  -0.36151  -0.35420
 Alpha virt. eigenvalues --    0.03952   0.05567   0.06855   0.08094   0.08144
 Alpha virt. eigenvalues --    0.08686   0.10339   0.11009   0.11152   0.13259
 Alpha virt. eigenvalues --    0.13347   0.13607   0.13993   0.14329   0.15748

 Mulliken charges:
               1
     1  O   -0.407563
     2  C    0.329927
     3  C   -0.304350
     4  C   -0.325836
     5  C   -0.306239
     6  C   -0.310809
     7  C   -0.333931
     8  C   -0.266386
     9  C   -0.275919
    10  C   -0.257085
    11  C   -0.428535
    12  O   -0.332184
    13  H    0.335775
    14  H    0.171847
    15  H    0.168142
    16  H    0.169062
    17  H    0.167199
    18  H    0.166753
    19  H    0.152591
    20  H    0.189449
    21  H    0.146327
    22  H    0.153610
    23  H    0.140461
    24  H    0.148965
    25  H    0.147480
    26  H    0.141544
    27  H    0.140742
    28  H    0.132387
    29  H    0.132817
    30  H    0.135658
    31  H    0.137183
    32  H    0.140916
 Sum of Mulliken charges =  -0.00000

 Dipole moment (field-independent basis, Debye):
    X=              0.0566    Y=             -1.6737    Z=             -0.0549  Tot=              1.6755
 Quadrupole moment (field-independent basis, Debye-Ang):
   XX=            -74.1232   YY=            -82.4706   ZZ=            -75.8156
   XY=              3.7330   XZ=             -0.3771   YZ=              0.4310

 1\1\GINC-NOTCH075\SP\RM062X\def2TZVP\C10H20O2\U6032257\03-Feb-2022\0\\
 # M062X/def2tzvp int=(grid=ultrafine) nmr=giao guess=read geom=check\\
 Ac1.xyz\\0,1\O,0,4.9553412406,-0.3370911808,1.1065804287\C,0,4.5931635
 432,-0.2245933136,-0.19732259\C,0,3.2012580547,-0.7544951887,-0.439199
 8108\C,0,3.129260424,-2.2853766165,-0.2633116707\C,0,4.1473331857,-3.0
 631250626,-1.1112329949\C,0,4.1162082114,-2.7558194263,-2.6151267423\C
 ,0,2.7636187457,-3.0166917561,-3.2844876326\C,0,2.8011289896,-2.789983
 0359,-4.7995959882\C,0,1.4444023929,-2.9429396829,-5.4989055156\C,0,0.

 Normal termination of Gaussian 16 at Thu Feb  3 09:46:56 2022.
