 Gaussian 16, Revision C.01,

 ----------------------------------------------------------------------
 # B3LYP/6-31G(d,p) empiricaldispersion=GD3BJ int=(grid=ultrafine) opt
 freq=noraman
 ----------------------------------------------------------------------

 -------
 Ac1.xyz
 -------
 Symbolic Z-matrix:
 Charge =  0 Multiplicity = 1

 SCF Done:  E(RB3LYP) =  -543.661114521     A.U. after   13 cycles
 SCF Done:  E(RB3LYP) =  -543.662120752     A.U. after   12 cycles
 SCF Done:  E(RB3LYP) =  -543.662292879     A.U. after   12 cycles
 SCF Done:  E(RB3LYP) =  -543.663536344     A.U. after   12 cycles
 SCF Done:  E(RB3LYP) =  -543.663988880     A.U. after   11 cycles
 SCF Done:  E(RB3LYP) =  -543.663925274     A.U. after   11 cycles
 SCF Done:  E(RB3LYP) =  -543.664056994     A.U. after   10 cycles
 SCF Done:  E(RB3LYP) =  -543.664068902     A.U. after    9 cycles
 SCF Done:  E(RB3LYP) =  -543.664068667     A.U. after    9 cycles
 SCF Done:  E(RB3LYP) =  -543.664052867     A.U. after    9 cycles
 SCF Done:  E(RB3LYP) =  -543.664069834     A.U. after    9 cycles
 SCF Done:  E(RB3LYP) =  -543.664071723     A.U. after    8 cycles
 SCF Done:  E(RB3LYP) =  -543.664071796     A.U. after    6 cycles
 Optimization completed.
    -- Stationary point found.
 Normal termination of Gaussian 16 at Thu Feb  3 07:16:47 2022.

 ----------------------------------------------------------------------
 #N Geom=AllCheck Guess=TCheck SCRF=Check GenChk RB3LYP/6-31G(d,p) Freq
 ----------------------------------------------------------------------

 Structure from the checkpoint file:  "Ac1_clust-16.chk"
 -------
 Ac1.xyz
 -------
 Charge =  0 Multiplicity = 1

 SCF Done:  E(RB3LYP) =  -543.664071796     A.U. after    1 cycles

                      1                      2                      3
                      A                      A                      A
 Frequencies --     27.6423                33.4193                50.3714
 Red. masses --      4.4063                 7.0681                 3.2652
 Frc consts  --      0.0020                 0.0047                 0.0049
 IR Inten    --      0.2247                 0.8451                 0.1725

                      4                      5                      6
                      A                      A                      A
 Frequencies --     69.8747                93.2976               105.4217
 Red. masses --      3.3475                 2.7271                 1.8352
 Frc consts  --      0.0096                 0.0140                 0.0120
 IR Inten    --      1.1658                 0.7438                 0.1069

                      7                      8                      9
                      A                      A                      A
 Frequencies --    135.0565               149.1740               199.1330
 Red. masses --      2.8940                 2.5982                 2.6913
 Frc consts  --      0.0311                 0.0341                 0.0629
 IR Inten    --      0.0358                 0.1614                 0.0912

                     10                     11                     12
                      A                      A                      A
 Frequencies --    223.5389               249.7860               279.1434
 Red. masses --      2.5466                 1.1715                 2.1312
 Frc consts  --      0.0750                 0.0431                 0.0978
 IR Inten    --      0.1058                 0.0325                 0.0853

                     13                     14                     15
                      A                      A                      A
 Frequencies --    310.8127               331.8348               382.7027
 Red. masses --      2.1874                 2.0699                 2.4645
 Frc consts  --      0.1245                 0.1343                 0.2127
 IR Inten    --      0.0228                 0.6112                 0.6688

                     16                     17                     18
                      A                      A                      A
 Frequencies --    444.2615               468.9586               506.7605
 Red. masses --      2.4117                 2.6112                 1.9011
 Frc consts  --      0.2804                 0.3383                 0.2876
 IR Inten    --      2.0483                 1.3864                 0.2914

                     19                     20                     21
                      A                      A                      A
 Frequencies --    553.7224               620.6962               706.0929
 Red. masses --      3.2825                 1.5679                 1.7996
 Frc consts  --      0.5930                 0.3559                 0.5286
 IR Inten    --     38.2814                51.4456                63.8969

                     22                     23                     24
                      A                      A                      A
 Frequencies --    726.1984               753.3768               787.3161
 Red. masses --      1.3070                 1.1553                 1.7920
 Frc consts  --      0.4061                 0.3863                 0.6545
 IR Inten    --      1.7801                 8.1688                11.8624

                     25                     26                     27
                      A                      A                      A
 Frequencies --    800.0980               835.1547               853.0524
 Red. masses --      1.8633                 2.4306                 2.1004
 Frc consts  --      0.7028                 0.9988                 0.9005
 IR Inten    --      0.3099                 2.4255                 3.4374

                     28                     29                     30
                      A                      A                      A
 Frequencies --    871.1423               909.1710               951.3357
 Red. masses --      1.5524                 1.9591                 2.1468
 Frc consts  --      0.6941                 0.9541                 1.1448
 IR Inten    --      1.7167                 2.8129                 0.3023

                     31                     32                     33
                      A                      A                      A
 Frequencies --    959.3559               988.4026              1014.0396
 Red. masses --      1.6191                 1.8497                 1.7279
 Frc consts  --      0.8780                 1.0647                 1.0469
 IR Inten    --     15.7266                 7.2525                 2.3333

                     34                     35                     36
                      A                      A                      A
 Frequencies --   1041.1276              1058.0109              1071.5201
 Red. masses --      2.2387                 1.9738                 2.0669
 Frc consts  --      1.4297                 1.3018                 1.3982
 IR Inten    --      0.5936                 8.0823                26.5635

                     37                     38                     39
                      A                      A                      A
 Frequencies --   1096.5087              1103.9876              1131.2261
 Red. masses --      1.8516                 2.2650                 1.7215
 Frc consts  --      1.3117                 1.6265                 1.2980
 IR Inten    --      5.6293                 3.2859                52.1033

                     40                     41                     42
                      A                      A                      A
 Frequencies --   1138.9471              1173.4689              1202.7643
 Red. masses --      1.6974                 1.8821                 1.3533
 Frc consts  --      1.2973                 1.5270                 1.1534
 IR Inten    --      7.6930                57.0786                11.7963

                     43                     44                     45
                      A                      A                      A
 Frequencies --   1230.0028              1244.4316              1268.2384
 Red. masses --      1.4910                 1.3523                 1.2763
 Frc consts  --      1.3291                 1.2339                 1.2095
 IR Inten    --     49.6205                31.2593                 7.8954

                     46                     47                     48
                      A                      A                      A
 Frequencies --   1291.9476              1309.0251              1330.3188
 Red. masses --      1.2727                 1.2558                 1.1745
 Frc consts  --      1.2516                 1.2678                 1.2247
 IR Inten    --      0.5474                 2.3704                 0.6057

                     49                     50                     51
                      A                      A                      A
 Frequencies --   1344.8663              1347.3065              1348.4758
 Red. masses --      1.2982                 1.2319                 1.1195
 Frc consts  --      1.3834                 1.3176                 1.1994
 IR Inten    --      3.4391                 0.4619                 0.6964

                     52                     53                     54
                      A                      A                      A
 Frequencies --   1351.0007              1380.2421              1389.8186
 Red. masses --      1.3566                 1.8272                 1.3863
 Frc consts  --      1.4589                 2.0510                 1.5777
 IR Inten    --     20.0426                24.4639                 6.7303

                     55                     56                     57
                      A                      A                      A
 Frequencies --   1396.6107              1411.3452              1411.6794
 Red. masses --      1.3683                 1.6649                 1.5156
 Frc consts  --      1.5725                 1.9539                 1.7795
 IR Inten    --      6.3315                15.0782                 0.6560

                     58                     59                     60
                      A                      A                      A
 Frequencies --   1418.3450              1426.8124              1484.0041
 Red. masses --      1.5159                 1.2398                 1.0870
 Frc consts  --      1.7967                 1.4870                 1.4104
 IR Inten    --      1.0242                 1.0667                 6.9838

                     61                     62                     63
                      A                      A                      A
 Frequencies --   1495.5263              1498.8260              1503.8376
 Red. masses --      1.0781                 1.0903                 1.0753
 Frc consts  --      1.4206                 1.4432                 1.4328
 IR Inten    --      1.3361                 5.9389                 1.4902

                     64                     65                     66
                      A                      A                      A
 Frequencies --   1508.5263              1509.6306              1512.1164
 Red. masses --      1.0817                 1.0908                 1.0703
 Frc consts  --      1.4504                 1.4647                 1.4418
 IR Inten    --      0.1785                 1.6850                 3.4587

                     67                     68                     69
                      A                      A                      A
 Frequencies --   1514.2836              1522.9891              1524.0345
 Red. masses --      1.0439                 1.0877                 1.0815
 Frc consts  --      1.4103                 1.4864                 1.4800
 IR Inten    --      6.0252                 6.8891                 1.8763

                     70                     71                     72
                      A                      A                      A
 Frequencies --   1840.0528              3014.2457              3017.5791
 Red. masses --      9.5800                 1.0598                 1.0658
 Frc consts  --     19.1107                 5.6733                 5.7178
 IR Inten    --    246.2554                11.6401                18.7973

                     73                     74                     75
                      A                      A                      A
 Frequencies --   3027.3923              3028.6561              3032.5909
 Red. masses --      1.0633                 1.0646                 1.0743
 Frc consts  --      5.7418                 5.7534                 5.8209
 IR Inten    --     41.7877                11.9383                31.2754

                     76                     77                     78
                      A                      A                      A
 Frequencies --   3035.6946              3037.6001              3041.4957
 Red. masses --      1.0670                 1.0360                 1.0650
 Frc consts  --      5.7936                 5.6319                 5.8046
 IR Inten    --     24.8493                43.4050                11.2660

                     79                     80                     81
                      A                      A                      A
 Frequencies --   3048.8457              3055.1542              3064.7608
 Red. masses --      1.0948                 1.0695                 1.0976
 Frc consts  --      5.9958                 5.8819                 6.0742
 IR Inten    --     19.7096                16.9750                35.3893

                     82                     83                     84
                      A                      A                      A
 Frequencies --   3072.2956              3073.5116              3076.6127
 Red. masses --      1.0984                 1.0999                 1.0920
 Frc consts  --      6.1086                 6.1217                 6.0902
 IR Inten    --     26.2530                82.2226                33.9717

                     85                     86                     87
                      A                      A                      A
 Frequencies --   3094.2188              3098.4402              3108.1663
 Red. masses --      1.1005                 1.0976                 1.1028
 Frc consts  --      6.2080                 6.2086                 6.2771
 IR Inten    --     26.8308                33.5016                69.3120

                     88                     89                     90
                      A                      A                      A
 Frequencies --   3110.9490              3141.1746              3753.1604
 Red. masses --      1.1020                 1.0941                 1.0641
 Frc consts  --      6.2835                 6.3602                 8.8316
 IR Inten    --     42.6777                15.7583                53.0340

 - Thermochemistry -
 -------------------
 Temperature   298.150 Kelvin.  Pressure   1.00000 Atm.
 Atom     1 has atomic number  8 and mass  15.99491

 Molecular mass:   172.14633 amu.
 Principal axes and moments of inertia in atomic units:
                           1         2         3
     Eigenvalues --  1566.664083921.759614231.25265
           X            0.99965  -0.02592  -0.00466
           Y            0.02549   0.99672  -0.07681
           Z            0.00663   0.07666   0.99703
 This molecule is an asymmetric top.
 Rotational symmetry number  1.
 Warning -- assumption of classical behavior for rotation
           may cause significant error
 Rotational temperatures (Kelvin)      0.05529     0.02209     0.02047
 Rotational constants (GHZ):           1.15196     0.46019     0.42653
 Zero-point vibrational energy     766535.6 (Joules/Mol)
                                  183.20641 (Kcal/Mol)
 Warning -- explicit consideration of  20 degrees of freedom as
           vibrations may cause significant error
 Vibrational temperatures:     39.77    48.08    72.47   100.53   134.23
          (Kelvin)            151.68   194.32   214.63   286.51   321.62
                              359.39   401.63   447.19   477.44   550.62
                              639.19   674.73   729.12   796.68   893.04
                             1015.91  1044.84  1083.94  1132.77  1151.16
                             1201.60  1227.35  1253.38  1308.09  1368.76
                             1380.30  1422.09  1458.98  1497.95  1522.24
                             1541.68  1577.63  1588.39  1627.58  1638.69
                             1688.36  1730.51  1769.70  1790.46  1824.71
                             1858.82  1883.40  1914.03  1934.96  1938.47
                             1940.16  1943.79  1985.86  1999.64  2009.41
                             2030.61  2031.09  2040.68  2052.86  2135.15
                             2151.73  2156.48  2163.69  2170.43  2172.02
                             2175.60  2178.72  2191.24  2192.75  2647.43
                             4336.83  4341.62  4355.74  4357.56  4363.22
                             4367.69  4370.43  4376.03  4386.61  4395.69
                             4409.51  4420.35  4422.10  4426.56  4451.89
                             4457.96  4471.96  4475.96  4519.45  5399.96

 Zero-point correction=                           0.291958 (Hartree/Particle)
 Thermal correction to Energy=                    0.306466
 Thermal correction to Enthalpy=                  0.307410
 Thermal correction to Gibbs Free Energy=         0.248726
 Sum of electronic and zero-point Energies=           -543.372114
 Sum of electronic and thermal Energies=              -543.357606
 Sum of electronic and thermal Enthalpies=            -543.356661
 Sum of electronic and thermal Free Energies=         -543.415346

                     E (Thermal)             CV                S
                      KCal/Mol        Cal/Mol-Kelvin    Cal/Mol-Kelvin
 Total                  192.310             52.379            123.511
 Electronic               0.000              0.000              0.000
 Translational            0.889              2.981             41.337
 Rotational               0.889              2.981             31.631
 Vibrational            190.533             46.418             50.544
 Vibration     1          0.593              1.984              5.992
 Vibration     2          0.594              1.983              5.615
 Vibration     3          0.595              1.977              4.803
 Vibration     4          0.598              1.968              4.157
 Vibration     5          0.602              1.954              3.590
 Vibration     6          0.605              1.945              3.352
 Vibration     7          0.613              1.918              2.873
 Vibration     8          0.618              1.904              2.683
 Vibration     9          0.637              1.841              2.141
 Vibration    10          0.649              1.805              1.930
 Vibration    11          0.663              1.763              1.732
 Vibration    12          0.679              1.712              1.539
 Vibration    13          0.700              1.653              1.358
 Vibration    14          0.714              1.612              1.251
 Vibration    15          0.752              1.507              1.028
 Vibration    16          0.804              1.374              0.813
 Vibration    17          0.826              1.319              0.740
 Vibration    18          0.862              1.235              0.641
 Vibration    19          0.909              1.132              0.537
 Vibration    20          0.981              0.988              0.415

 Optimization completed.
    -- Stationary point found.
 Normal termination of Gaussian 16 at Thu Feb  3 07:18:26 2022.

 ----------------------------------------------------------------------
 # M062X/def2tzvp int=(grid=ultrafine) pop=nbo7 polar prop=efg volume g
 uess=read geom=check
 ----------------------------------------------------------------------

 -------
 Ac1.xyz
 -------
 Structure from the checkpoint file:  "Ac1_clust-16.chk"
 Charge =  0 Multiplicity = 1

 SCF Done:  E(RM062X) =  -543.537733592     A.U. after   12 cycles

  Exact polarizability:     135.991      -5.014     117.647      -2.641      -0.068     119.349
 Approx polarizability:     148.208      -2.886     140.228      -2.663       3.702     148.707

 Summary of Natural Population Analysis:

                                     Natural Population
             Natural    ---------------------------------------------
  Atom No    Charge        Core      Valence    Rydberg      Total
 --------------------------------------------------------------------
    O  1   -0.69517      2.00000     6.67288    0.02229     8.69517
    C  2    0.79788      1.99999     3.16420    0.03793     5.20212
    C  3   -0.51737      1.99999     4.50396    0.01341     6.51737
    C  4   -0.38456      1.99999     4.37330    0.01127     6.38456
    C  5   -0.40153      1.99999     4.39050    0.01103     6.40153
    C  6   -0.40427      1.99999     4.39285    0.01143     6.40427
    C  7   -0.41073      1.99999     4.39869    0.01205     6.41073
    C  8   -0.39127      1.99999     4.38048    0.01080     6.39127
    C  9   -0.38991      1.99999     4.37851    0.01141     6.38991
    C 10   -0.39594      1.99999     4.38584    0.01011     6.39594
    C 11   -0.60126      1.99999     4.59264    0.00863     6.60126
    O 12   -0.59747      2.00000     6.57106    0.02642     8.59747
    H 13    0.49513      0.00000     0.50145    0.00342     0.50487
    H 14    0.22864      0.00000     0.76971    0.00165     0.77136
    H 15    0.24019      0.00000     0.75852    0.00129     0.75981
    H 16    0.21700      0.00000     0.78146    0.00154     0.78300
    H 17    0.20441      0.00000     0.79391    0.00168     0.79559
    H 18    0.19848      0.00000     0.79946    0.00205     0.80152
    H 19    0.21084      0.00000     0.78782    0.00134     0.78916
    H 20    0.20313      0.00000     0.79531    0.00157     0.79687
    H 21    0.19590      0.00000     0.80210    0.00200     0.80410
    H 22    0.21165      0.00000     0.78621    0.00213     0.78835
    H 23    0.20205      0.00000     0.79643    0.00152     0.79795
    H 24    0.19152      0.00000     0.80650    0.00198     0.80848
    H 25    0.20730      0.00000     0.79130    0.00141     0.79270
    H 26    0.19696      0.00000     0.80112    0.00192     0.80304
    H 27    0.19741      0.00000     0.80085    0.00175     0.80259
    H 28    0.19346      0.00000     0.80467    0.00187     0.80654
    H 29    0.18796      0.00000     0.81016    0.00187     0.81204
    H 30    0.20654      0.00000     0.79247    0.00099     0.79346
    H 31    0.20234      0.00000     0.79637    0.00128     0.79766
    H 32    0.20069      0.00000     0.79803    0.00127     0.79931
 ====================================================================
 * Total *  0.00000     23.99992    71.77877    0.22132    96.00000

 1\1\GINC-NOTCH075\SP\RM062X\def2TZVP\C10H20O2\U6032257\03-Feb-2022\0\\
 # M062X/def2tzvp int=(grid=ultrafine) pop=nbo7 polar prop=efg volume g
 uess=read geom=check\\Ac1.xyz\\0,1\O,0,4.8995315791,-0.2713460834,0.05
 43972681\C,0,4.3966120391,-0.4922664699,-1.1867177541\C,0,2.8964330276
 ,-0.6661910012,-1.1688570127\C,0,2.3928454597,-1.6746576981,-0.1230703
 999\C,0,2.9314927284,-3.1056914125,-0.2698320721\C,0,2.5745565654,-3.8
 082793253,-1.595702462\C,0,3.6572164549,-3.706117199,-2.6822095641\C,0
 ,3.2674614865,-4.3460832,-4.0291211325\C,0,2.6323338967,-3.3870138366,

 Normal termination of Gaussian 16 at Thu Feb  3 07:22:24 2022.
 Gaussian 16:  ES64L-G16RevC.01  3-Jul-2019

 --------------------------------------------------------------------
 # M062X/def2tzvp int=(grid=ultrafine) nmr=giao guess=read geom=check
 --------------------------------------------------------------------

 -------
 Ac1.xyz
 -------
 Structure from the checkpoint file:  "Ac1_clust-16.chk"
 Charge =  0 Multiplicity = 1

                         Standard orientation:
 ---------------------------------------------------------------------
 Center     Atomic      Atomic             Coordinates (Angstroms)
 Number     Number       Type             X           Y           Z
 ---------------------------------------------------------------------
      1          8           0       -3.577350   -0.718695   -0.389385
      2          6           0       -2.262831   -1.053035   -0.437942
      3          6           0       -1.578266   -0.860263    0.894467
      4          6           0       -1.830378    0.513300    1.537926
      5          6           0       -1.379646    1.725642    0.709310
      6          6           0        0.130416    1.784577    0.400761
      7          6           0        0.525044    1.197116   -0.963881
      8          6           0        2.041775    1.191169   -1.237974
      9          6           0        2.769747   -0.104176   -0.848321
     10          6           0        2.743024   -0.463931    0.640725
     11          6           0        3.575579   -1.707833    0.959131
     12          8           0       -1.741844   -1.465480   -1.451745
     13          1           0       -3.924895   -0.879842   -1.282759
     14          1           0       -0.515137   -1.049277    0.737792
     15          1           0       -1.953725   -1.642975    1.565574
     16          1           0       -2.899667    0.604145    1.753980
     17          1           0       -1.310626    0.528836    2.503711
     18          1           0       -1.950143    1.760734   -0.228633
     19          1           0       -1.671985    2.622614    1.267473
     20          1           0        0.460915    2.830662    0.418690
     21          1           0        0.684103    1.289933    1.207434
     22          1           0        0.133572    0.181562   -1.084797
     23          1           0        0.020854    1.795026   -1.733932
     24          1           0        2.510878    2.043917   -0.726813
     25          1           0        2.210346    1.355148   -2.308907
     26          1           0        2.339160   -0.937354   -1.420909
     27          1           0        3.818024   -0.026574   -1.168022
     28          1           0        3.109785    0.388037    1.229109
     29          1           0        1.708997   -0.634177    0.963096
     30          1           0        3.540139   -1.955570    2.024865
     31          1           0        3.210086   -2.577474    0.401660
     32          1           0        4.626074   -1.559362    0.685223
 ---------------------------------------------------------------------

 SCF Done:  E(RM062X) =  -543.537733592     A.U. after    1 cycles

      1  O    Isotropic =   103.3211   Anisotropy =   231.7399

      2  C    Isotropic =    -9.5038   Anisotropy =   129.8593

      3  C    Isotropic =   148.2778   Anisotropy =    34.2837

      4  C    Isotropic =   155.1517   Anisotropy =    13.3791

      5  C    Isotropic =   157.7138   Anisotropy =    20.6569

      6  C    Isotropic =   151.6061   Anisotropy =    36.8144

      7  C    Isotropic =   151.2666   Anisotropy =    37.0117

      8  C    Isotropic =   154.5375   Anisotropy =    14.9937

      9  C    Isotropic =   147.7333   Anisotropy =    27.9381

     10  C    Isotropic =   158.1500   Anisotropy =    12.6858

     11  C    Isotropic =   169.4407   Anisotropy =    29.4328

     12  O    Isotropic =  -182.8899   Anisotropy =   630.8143

     13  H    Isotropic =    25.6948   Anisotropy =    11.3708

     14  H    Isotropic =    29.3317   Anisotropy =     6.4279

     15  H    Isotropic =    29.5063   Anisotropy =     7.7452

     16  H    Isotropic =    29.8086   Anisotropy =     9.5081

     17  H    Isotropic =    30.5233   Anisotropy =     8.0223

     18  H    Isotropic =    30.9333   Anisotropy =     5.5185

     19  H    Isotropic =    30.2815   Anisotropy =    10.1006

     20  H    Isotropic =    30.4592   Anisotropy =     7.7116

     21  H    Isotropic =    30.7184   Anisotropy =     5.7139

     22  H    Isotropic =    30.2400   Anisotropy =     7.6439

     23  H    Isotropic =    30.6003   Anisotropy =     6.9854

     24  H    Isotropic =    30.9903   Anisotropy =     6.7534

     25  H    Isotropic =    30.1786   Anisotropy =     9.6266

     26  H    Isotropic =    30.4941   Anisotropy =     5.6487

     27  H    Isotropic =    30.5502   Anisotropy =     8.2995

     28  H    Isotropic =    30.8005   Anisotropy =     5.8393

     29  H    Isotropic =    30.2801   Anisotropy =     9.5695

     30  H    Isotropic =    30.7183   Anisotropy =    10.4898

     31  H    Isotropic =    31.0050   Anisotropy =     8.2846

     32  H    Isotropic =    31.1066   Anisotropy =     9.5306

 The electronic state is 1-A.
 Alpha  occ. eigenvalues --  -19.67691 -19.62248 -10.68067 -10.55489 -10.54374
 Alpha  occ. eigenvalues --  -10.53329 -10.52756 -10.52720 -10.52349 -10.52301
 Alpha  occ. eigenvalues --  -10.52153 -10.51992  -1.23715  -1.14096  -0.91953
 Alpha  occ. eigenvalues --   -0.89794  -0.86417  -0.82725  -0.78130  -0.73330
 Alpha  occ. eigenvalues --   -0.70425  -0.67624  -0.65166  -0.64137  -0.58414
 Alpha  occ. eigenvalues --   -0.56750  -0.55386  -0.54635  -0.52544  -0.51289
 Alpha  occ. eigenvalues --   -0.50052  -0.49579  -0.48303  -0.46990  -0.46023
 Alpha  occ. eigenvalues --   -0.45315  -0.43633  -0.43192  -0.42337  -0.40575
 Alpha  occ. eigenvalues --   -0.40249  -0.39360  -0.38857  -0.37931  -0.37262
 Alpha  occ. eigenvalues --   -0.36001  -0.35748  -0.35407
 Alpha virt. eigenvalues --    0.03786   0.05593   0.07098   0.07994   0.08243
 Alpha virt. eigenvalues --    0.09714   0.10104   0.10811   0.11798   0.12518
 Alpha virt. eigenvalues --    0.13401   0.13674   0.14102   0.15266   0.15908

 Mulliken charges:
               1
     1  O   -0.407382
     2  C    0.330427
     3  C   -0.315797
     4  C   -0.299537
     5  C   -0.274677
     6  C   -0.333351
     7  C   -0.334886
     8  C   -0.255152
     9  C   -0.289181
    10  C   -0.255208
    11  C   -0.425359
    12  O   -0.327957
    13  H    0.336445
    14  H    0.161784
    15  H    0.171899
    16  H    0.166734
    17  H    0.158723
    18  H    0.163683
    19  H    0.146827
    20  H    0.148532
    21  H    0.168225
    22  H    0.175958
    23  H    0.147432
    24  H    0.146184
    25  H    0.142244
    26  H    0.156522
    27  H    0.137320
    28  H    0.144052
    29  H    0.097400
    30  H    0.139498
    31  H    0.139863
    32  H    0.138735
 Sum of Mulliken charges =  -0.00000

 Dipole moment (field-independent basis, Debye):
    X=             -0.8029    Y=              0.7952    Z=              1.3057  Tot=              1.7268
 Quadrupole moment (field-independent basis, Debye-Ang):
   XX=            -73.1435   YY=            -78.9264   ZZ=            -77.8934
   XY=              0.7860   XZ=              1.3656   YZ=             -2.7862

 1\1\GINC-NOTCH075\SP\RM062X\def2TZVP\C10H20O2\U6032257\03-Feb-2022\0\\
 # M062X/def2tzvp int=(grid=ultrafine) nmr=giao guess=read geom=check\\
 Ac1.xyz\\0,1\O,0,4.8995315791,-0.2713460834,0.0543972681\C,0,4.3966120
 391,-0.4922664699,-1.1867177541\C,0,2.8964330276,-0.6661910012,-1.1688
 570127\C,0,2.3928454597,-1.6746576981,-0.1230703999\C,0,2.9314927284,-
 3.1056914125,-0.2698320721\C,0,2.5745565654,-3.8082793253,-1.595702462
 \C,0,3.6572164549,-3.706117199,-2.6822095641\C,0,3.2674614865,-4.34608
 32,-4.0291211325\C,0,2.6323338967,-3.3870138366,-5.0472026227\C,0,1.30

 Normal termination of Gaussian 16 at Thu Feb  3 07:23:58 2022.
