 Gaussian 16, Revision C.01,

 ----------------------------------------------------------------------
 # B3LYP/6-31G(d,p) empiricaldispersion=GD3BJ int=(grid=ultrafine) opt
 freq=noraman
 ----------------------------------------------------------------------

 -------
 Ac1.xyz
 -------
 Symbolic Z-matrix:
 Charge =  0 Multiplicity = 1

 SCF Done:  E(RB3LYP) =  -543.663020891     A.U. after   13 cycles
 SCF Done:  E(RB3LYP) =  -543.665375343     A.U. after   12 cycles
 SCF Done:  E(RB3LYP) =  -543.664761388     A.U. after   11 cycles
 SCF Done:  E(RB3LYP) =  -543.665538289     A.U. after   11 cycles
 SCF Done:  E(RB3LYP) =  -543.665682113     A.U. after   10 cycles
 SCF Done:  E(RB3LYP) =  -543.665711103     A.U. after    9 cycles
 SCF Done:  E(RB3LYP) =  -543.665713738     A.U. after    8 cycles
 SCF Done:  E(RB3LYP) =  -543.665714601     A.U. after    8 cycles
 SCF Done:  E(RB3LYP) =  -543.665715049     A.U. after    8 cycles
 SCF Done:  E(RB3LYP) =  -543.665715549     A.U. after    9 cycles
 SCF Done:  E(RB3LYP) =  -543.665716029     A.U. after    9 cycles
 SCF Done:  E(RB3LYP) =  -543.665716546     A.U. after   10 cycles
 SCF Done:  E(RB3LYP) =  -543.665717471     A.U. after   10 cycles
 SCF Done:  E(RB3LYP) =  -543.665717868     A.U. after    9 cycles
 SCF Done:  E(RB3LYP) =  -543.665717954     A.U. after    7 cycles
 Optimization completed.
    -- Stationary point found.
 Normal termination of Gaussian 16 at Thu Feb  3 06:39:21 2022.

 ----------------------------------------------------------------------
 #N Geom=AllCheck Guess=TCheck SCRF=Check GenChk RB3LYP/6-31G(d,p) Freq
 ----------------------------------------------------------------------

 Structure from the checkpoint file:  "Ac1_clust-12.chk"
 -------
 Ac1.xyz
 -------
 Charge =  0 Multiplicity = 1

 SCF Done:  E(RB3LYP) =  -543.665717954     A.U. after    1 cycles

                      1                      2                      3
                      A                      A                      A
 Frequencies --     12.4945                23.1350                31.6432
 Red. masses --     10.2440                 5.0144                 3.2261
 Frc consts  --      0.0009                 0.0016                 0.0019
 IR Inten    --      1.6495                 0.4060                 0.1770

                      4                      5                      6
                      A                      A                      A
 Frequencies --     53.9508                64.5029               115.6135
 Red. masses --      1.9842                 3.0143                 2.2963
 Frc consts  --      0.0034                 0.0074                 0.0181
 IR Inten    --      0.0837                 0.0895                 0.0547

                      7                      8                      9
                      A                      A                      A
 Frequencies --    124.3774               145.6023               159.2634
 Red. masses --      2.1921                 2.6732                 2.3227
 Frc consts  --      0.0200                 0.0334                 0.0347
 IR Inten    --      0.0267                 0.0434                 0.0066

                     10                     11                     12
                      A                      A                      A
 Frequencies --    201.2550               241.2020               251.0387
 Red. masses --      2.2940                 2.2032                 1.2417
 Frc consts  --      0.0547                 0.0755                 0.0461
 IR Inten    --      0.0563                 0.1822                 0.0398

                     13                     14                     15
                      A                      A                      A
 Frequencies --    290.5480               379.6555               398.4248
 Red. masses --      2.2311                 3.3117                 2.6471
 Frc consts  --      0.1110                 0.2812                 0.2476
 IR Inten    --      0.0561                 0.3322                 1.2345

                     16                     17                     18
                      A                      A                      A
 Frequencies --    404.2285               442.6917               486.3408
 Red. masses --      2.4054                 2.9496                 2.0633
 Frc consts  --      0.2316                 0.3406                 0.2875
 IR Inten    --      0.0485                 2.6017                 0.1042

                     19                     20                     21
                      A                      A                      A
 Frequencies --    567.5300               628.8937               722.9136
 Red. masses --      3.6698                 1.3072                 1.6211
 Frc consts  --      0.6964                 0.3046                 0.4992
 IR Inten    --     39.6422                73.1778                37.1426

                     22                     23                     24
                      A                      A                      A
 Frequencies --    734.8913               755.3565               784.1223
 Red. masses --      1.0877                 1.4213                 1.3298
 Frc consts  --      0.3461                 0.4778                 0.4817
 IR Inten    --      3.7271                17.7335                 3.9241

                     25                     26                     27
                      A                      A                      A
 Frequencies --    807.6417               825.8830               881.3404
 Red. masses --      1.9736                 1.6874                 2.2999
 Frc consts  --      0.7585                 0.6781                 1.0525
 IR Inten    --      4.9615                 0.2508                 4.5770

                     28                     29                     30
                      A                      A                      A
 Frequencies --    892.2887               904.3763               941.3869
 Red. masses --      2.0561                 1.7235                 1.4167
 Frc consts  --      0.9645                 0.8305                 0.7397
 IR Inten    --      5.5148                 2.7034                 1.4160

                     31                     32                     33
                      A                      A                      A
 Frequencies --    974.7928               977.7951              1019.7901
 Red. masses --      1.8173                 2.4279                 2.4072
 Frc consts  --      1.0174                 1.3676                 1.4750
 IR Inten    --      6.8417                 0.5758                 0.6652

                     34                     35                     36
                      A                      A                      A
 Frequencies --   1056.9036              1058.8132              1070.0926
 Red. masses --      1.7475                 2.2390                 1.9197
 Frc consts  --      1.1501                 1.4789                 1.2952
 IR Inten    --     31.6338                 2.6400                 6.2679

                     37                     38                     39
                      A                      A                      A
 Frequencies --   1084.8527              1101.4283              1113.4081
 Red. masses --      2.0429                 2.2170                 1.6255
 Frc consts  --      1.4166                 1.5846                 1.1873
 IR Inten    --     10.0696                 2.5598                51.6853

                     40                     41                     42
                      A                      A                      A
 Frequencies --   1142.1532              1188.2549              1217.2136
 Red. masses --      1.9562                 1.9323                 1.5993
 Frc consts  --      1.5035                 1.6074                 1.3961
 IR Inten    --      3.8226                29.3844                40.8008

                     43                     44                     45
                      A                      A                      A
 Frequencies --   1228.3003              1253.7690              1257.3697
 Red. masses --      1.4071                 1.3641                 1.3389
 Frc consts  --      1.2508                 1.2633                 1.2472
 IR Inten    --     50.8673                15.1938                 3.9140

                     46                     47                     48
                      A                      A                      A
 Frequencies --   1303.6732              1308.4784              1323.5236
 Red. masses --      1.3077                 1.3021                 1.2484
 Frc consts  --      1.3095                 1.3134                 1.2884
 IR Inten    --      3.6492                 0.2751                 2.8119

                     49                     50                     51
                      A                      A                      A
 Frequencies --   1329.2645              1340.1254              1347.8270
 Red. masses --      1.2145                 1.0746                 1.2257
 Frc consts  --      1.2644                 1.1371                 1.3119
 IR Inten    --      0.3376                 1.5108                 7.9786

                     52                     53                     54
                      A                      A                      A
 Frequencies --   1356.8833              1375.7071              1379.8535
 Red. masses --      1.1575                 1.5506                 1.4386
 Frc consts  --      1.2556                 1.7291                 1.6138
 IR Inten    --      5.4761                12.3071                 5.4617

                     55                     56                     57
                      A                      A                      A
 Frequencies --   1393.1755              1403.0390              1414.6981
 Red. masses --      1.4367                 1.6701                 1.6171
 Frc consts  --      1.6429                 1.9370                 1.9069
 IR Inten    --      4.1136                18.0658                 3.7024

                     58                     59                     60
                      A                      A                      A
 Frequencies --   1427.0955              1429.3157              1488.3591
 Red. masses --      1.4513                 1.3650                 1.0970
 Frc consts  --      1.7414                 1.6430                 1.4318
 IR Inten    --      6.1366                 1.4689                 9.7298

                     61                     62                     63
                      A                      A                      A
 Frequencies --   1494.8760              1501.1745              1502.6920
 Red. masses --      1.0824                 1.0862                 1.0719
 Frc consts  --      1.4251                 1.4422                 1.4261
 IR Inten    --      0.5653                 1.6122                 0.1159

                     64                     65                     66
                      A                      A                      A
 Frequencies --   1504.2950              1506.8528              1514.5044
 Red. masses --      1.0797                 1.0902                 1.0418
 Frc consts  --      1.4396                 1.4585                 1.4079
 IR Inten    --      4.3834                 0.8906                 4.9980

                     67                     68                     69
                      A                      A                      A
 Frequencies --   1516.2896              1518.5750              1527.7345
 Red. masses --      1.0745                 1.0933                 1.0888
 Frc consts  --      1.4556                 1.4855                 1.4973
 IR Inten    --      1.7261                 1.8769                 3.0281

                     70                     71                     72
                      A                      A                      A
 Frequencies --   1846.8516              3013.3678              3014.4616
 Red. masses --      9.5636                 1.0615                 1.0614
 Frc consts  --     19.2192                 5.6790                 5.6826
 IR Inten    --    244.0274                 8.6456                10.1518

                     73                     74                     75
                      A                      A                      A
 Frequencies --   3017.9250              3022.3233              3027.1166
 Red. masses --      1.0625                 1.0665                 1.0655
 Frc consts  --      5.7014                 5.7396                 5.7525
 IR Inten    --      3.4059                14.7391                53.6303

                     76                     77                     78
                      A                      A                      A
 Frequencies --   3029.0414              3038.1730              3045.1983
 Red. masses --      1.0659                 1.0370                 1.0648
 Frc consts  --      5.7619                 5.6395                 5.8176
 IR Inten    --     29.8728                31.9838                42.7864

                     79                     80                     81
                      A                      A                      A
 Frequencies --   3046.8540              3050.4619              3055.5828
 Red. masses --      1.0963                 1.0994                 1.0929
 Frc consts  --      5.9963                 6.0277                 6.0122
 IR Inten    --      6.2704                 9.5074                53.3751

                     82                     83                     84
                      A                      A                      A
 Frequencies --   3067.3069              3067.7186              3075.2346
 Red. masses --      1.0636                 1.0985                 1.0991
 Frc consts  --      5.8958                 6.0910                 6.1239
 IR Inten    --     18.7966                60.0922                12.4809

                     85                     86                     87
                      A                      A                      A
 Frequencies --   3087.8497              3097.0089              3107.6049
 Red. masses --      1.0988                 1.1038                 1.1025
 Frc consts  --      6.1729                 6.2378                 6.2731
 IR Inten    --     49.2748                53.8826                66.3593

                     88                     89                     90
                      A                      A                      A
 Frequencies --   3112.1613              3132.7725              3753.3016
 Red. masses --      1.1022                 1.1023                 1.0641
 Frc consts  --      6.2900                 6.3741                 8.8322
 IR Inten    --     45.3419                18.0962                44.3335

 - Thermochemistry -
 -------------------
 Temperature   298.150 Kelvin.  Pressure   1.00000 Atm.
 Atom     1 has atomic number  8 and mass  15.99491

 Molecular mass:   172.14633 amu.
 Principal axes and moments of inertia in atomic units:
                           1         2         3
     Eigenvalues --  1931.044953831.530785247.97345
           X            0.99899   0.04476  -0.00295
           Y           -0.04476   0.99900  -0.00051
           Z            0.00292   0.00064   1.00000
 This molecule is an asymmetric top.
 Rotational symmetry number  1.
 Warning -- assumption of classical behavior for rotation
           may cause significant error
 Rotational temperatures (Kelvin)      0.04485     0.02261     0.01650
 Rotational constants (GHZ):           0.93459     0.47102     0.34389
 Zero-point vibrational energy     765214.4 (Joules/Mol)
                                  182.89063 (Kcal/Mol)
 Warning -- explicit consideration of  19 degrees of freedom as
           vibrations may cause significant error
 Vibrational temperatures:     17.98    33.29    45.53    77.62    92.81
          (Kelvin)            166.34   178.95   209.49   229.14   289.56
                              347.04   361.19   418.03   546.24   573.24
                              581.59   636.93   699.74   816.55   904.84
                             1040.11  1057.34  1086.79  1128.18  1162.02
                             1188.26  1268.05  1283.80  1301.20  1354.45
                             1402.51  1406.83  1467.25  1520.65  1523.40
                             1539.62  1560.86  1584.71  1601.95  1643.30
                             1709.63  1751.30  1767.25  1803.89  1809.07
                             1875.69  1882.61  1904.26  1912.52  1928.14
                             1939.22  1952.25  1979.34  1985.30  2004.47
                             2018.66  2035.44  2053.27  2056.47  2141.42
                             2150.79  2159.86  2162.04  2164.35  2168.03
                             2179.03  2181.60  2184.89  2198.07  2657.21
                             4335.56  4337.14  4342.12  4348.45  4355.35
                             4358.12  4371.25  4381.36  4383.74  4388.93
                             4396.30  4413.17  4413.76  4424.58  4442.73
                             4455.91  4471.15  4477.71  4507.36  5400.16

 Zero-point correction=                           0.291455 (Hartree/Particle)
 Thermal correction to Energy=                    0.306304
 Thermal correction to Enthalpy=                  0.307248
 Thermal correction to Gibbs Free Energy=         0.245831
 Sum of electronic and zero-point Energies=           -543.374263
 Sum of electronic and thermal Energies=              -543.359414
 Sum of electronic and thermal Enthalpies=            -543.358470
 Sum of electronic and thermal Free Energies=         -543.419887

                     E (Thermal)             CV                S
                      KCal/Mol        Cal/Mol-Kelvin    Cal/Mol-Kelvin
 Total                  192.209             52.510            129.264
 Electronic               0.000              0.000              0.000
 Translational            0.889              2.981             41.337
 Rotational               0.889              2.981             32.029
 Vibrational            190.431             46.549             55.897
 Vibration     1          0.593              1.987              7.569
 Vibration     2          0.593              1.985              6.345
 Vibration     3          0.594              1.983              5.724
 Vibration     4          0.596              1.976              4.667
 Vibration     5          0.597              1.971              4.314
 Vibration     6          0.608              1.936              3.172
 Vibration     7          0.610              1.929              3.031
 Vibration     8          0.617              1.907              2.729
 Vibration     9          0.621              1.892              2.559
 Vibration    10          0.638              1.838              2.122
 Vibration    11          0.658              1.777              1.794
 Vibration    12          0.663              1.761              1.723
 Vibration    13          0.687              1.691              1.471
 Vibration    14          0.750              1.514              1.041
 Vibration    15          0.765              1.474              0.968
 Vibration    16          0.769              1.461              0.947
 Vibration    17          0.802              1.377              0.818
 Vibration    18          0.842              1.280              0.693
 Vibration    19          0.923              1.101              0.509

                           ! Non-Optimized Parameters !
 Normal termination of Gaussian 16 at Thu Feb  3 06:40:49 2022.

 ----------------------------------------------------------------------
 # M062X/def2tzvp int=(grid=ultrafine) pop=nbo7 polar prop=efg volume g
 uess=read geom=check
 ----------------------------------------------------------------------

 -------
 Ac1.xyz
 -------
 Structure from the checkpoint file:  "Ac1_clust-12.chk"
 Charge =  0 Multiplicity = 1

 SCF Done:  E(RM062X) =  -543.540547226     A.U. after   11 cycles

  Exact polarizability:     130.423       5.835     133.530       0.020       1.152     110.511
 Approx polarizability:     141.581       5.032     147.754       3.302       2.206     146.473

 Summary of Natural Population Analysis:

                                     Natural Population
             Natural    ---------------------------------------------
  Atom No    Charge        Core      Valence    Rydberg      Total
 --------------------------------------------------------------------
    O  1   -0.69599      2.00000     6.67381    0.02218     8.69599
    C  2    0.79637      1.99999     3.16559    0.03805     5.20363
    C  3   -0.50553      1.99999     4.49253    0.01300     6.50553
    C  4   -0.38096      1.99999     4.37039    0.01058     6.38096
    C  5   -0.40553      1.99999     4.39353    0.01201     6.40553
    C  6   -0.38575      1.99999     4.37466    0.01111     6.38575
    C  7   -0.39003      1.99999     4.37936    0.01067     6.39003
    C  8   -0.39887      1.99999     4.38748    0.01140     6.39887
    C  9   -0.39378      1.99999     4.38245    0.01133     6.39378
    C 10   -0.39041      1.99999     4.38020    0.01022     6.39041
    C 11   -0.60209      1.99999     4.59354    0.00856     6.60209
    O 12   -0.59472      2.00000     6.56830    0.02642     8.59472
    H 13    0.49375      0.00000     0.50280    0.00345     0.50625
    H 14    0.22767      0.00000     0.77088    0.00145     0.77233
    H 15    0.23425      0.00000     0.76446    0.00129     0.76575
    H 16    0.21023      0.00000     0.78797    0.00180     0.78977
    H 17    0.20602      0.00000     0.79225    0.00173     0.79398
    H 18    0.19979      0.00000     0.79822    0.00199     0.80021
    H 19    0.19952      0.00000     0.79829    0.00220     0.80048
    H 20    0.19336      0.00000     0.80471    0.00193     0.80664
    H 21    0.19838      0.00000     0.79991    0.00171     0.80162
    H 22    0.20623      0.00000     0.79239    0.00138     0.79377
    H 23    0.19471      0.00000     0.80339    0.00189     0.80529
    H 24    0.20211      0.00000     0.79629    0.00160     0.79789
    H 25    0.19282      0.00000     0.80515    0.00204     0.80718
    H 26    0.19242      0.00000     0.80564    0.00194     0.80758
    H 27    0.19950      0.00000     0.79858    0.00192     0.80050
    H 28    0.19228      0.00000     0.80589    0.00183     0.80772
    H 29    0.19233      0.00000     0.80582    0.00185     0.80767
    H 30    0.20560      0.00000     0.79317    0.00124     0.79440
    H 31    0.20692      0.00000     0.79212    0.00096     0.79308
    H 32    0.19939      0.00000     0.79934    0.00127     0.80061
 ====================================================================
 * Total *  0.00000     23.99992    71.77911    0.22097    96.00000

 1\1\GINC-NOTCH075\SP\RM062X\def2TZVP\C10H20O2\U6032257\03-Feb-2022\0\\
 # M062X/def2tzvp int=(grid=ultrafine) pop=nbo7 polar prop=efg volume g
 uess=read geom=check\\Ac1.xyz\\0,1\O,0,5.7108023269,-0.9597576792,-0.7
 22280002\C,0,4.5451668112,-0.2887479821,-0.9154170118\C,0,3.5680480257
 ,-0.534501845,0.2097486101\C,0,3.1072833076,-2.0037175029,0.258083293\
 C,0,2.4481986984,-2.4622220495,-1.045055503\C,0,1.9681485154,-3.914421
 9611,-0.9946897864\C,0,1.2258783257,-4.4003501673,-2.2489401817\C,0,2.
 0432028392,-4.3463737867,-3.555578614\C,0,1.889925984,-3.0490394555,-4

 Normal termination of Gaussian 16 at Thu Feb  3 06:44:16 2022.
 Gaussian 16:  ES64L-G16RevC.01  3-Jul-2019

 --------------------------------------------------------------------
 # M062X/def2tzvp int=(grid=ultrafine) nmr=giao guess=read geom=check
 --------------------------------------------------------------------

 -------
 Ac1.xyz
 -------
 Structure from the checkpoint file:  "Ac1_clust-12.chk"
 Charge =  0 Multiplicity = 1

                         Standard orientation:
 ---------------------------------------------------------------------
 Center     Atomic      Atomic             Coordinates (Angstroms)
 Number     Number       Type             X           Y           Z
 ---------------------------------------------------------------------
      1          8           0        2.869546   -1.231823    1.316853
      2          6           0        2.561366   -1.236695   -0.006500
      3          6           0        3.020984    0.029275   -0.690038
      4          6           0        2.264437    1.267321   -0.172239
      5          6           0        0.749030    1.157160   -0.357165
      6          6           0       -0.005790    2.394080    0.134917
      7          6           0       -1.523519    2.369663   -0.102015
      8          6           0       -2.273905    1.207095    0.578862
      9          6           0       -2.442659   -0.047645   -0.287413
     10          6           0       -3.153667   -1.190688    0.441868
     11          6           0       -3.327075   -2.437022   -0.428420
     12          8           0        1.964208   -2.153264   -0.526380
     13          1           0        2.514336   -2.062717    1.674939
     14          1           0        2.855452   -0.106899   -1.761139
     15          1           0        4.095427    0.150015   -0.515052
     16          1           0        2.498716    1.412301    0.888424
     17          1           0        2.641369    2.149793   -0.702927
     18          1           0        0.522637    0.982118   -1.417769
     19          1           0        0.389289    0.271968    0.179347
     20          1           0        0.183956    2.520488    1.210128
     21          1           0        0.412945    3.284664   -0.353162
     22          1           0       -1.930955    3.321716    0.258244
     23          1           0       -1.723867    2.346743   -1.182078
     24          1           0       -3.273498    1.547766    0.877466
     25          1           0       -1.760305    0.941163    1.513938
     26          1           0       -3.012178    0.217699   -1.189272
     27          1           0       -1.468945   -0.403873   -0.642279
     28          1           0       -2.583823   -1.450017    1.344465
     29          1           0       -4.135080   -0.843534    0.792537
     30          1           0       -2.356639   -2.820561   -0.762154
     31          1           0       -3.835372   -3.240103    0.114689
     32          1           0       -3.918710   -2.213301   -1.323265
 ---------------------------------------------------------------------

 SCF Done:  E(RM062X) =  -543.540547226     A.U. after    1 cycles

      1  O    Isotropic =   105.1989   Anisotropy =   233.7805

      2  C    Isotropic =    -9.0786   Anisotropy =   130.6713

      3  C    Isotropic =   146.5742   Anisotropy =    28.1956

      4  C    Isotropic =   155.2323   Anisotropy =    22.8675

      5  C    Isotropic =   153.1929   Anisotropy =    22.8214

      6  C    Isotropic =   150.0860   Anisotropy =    24.9053

      7  C    Isotropic =   155.2812   Anisotropy =    13.7778

      8  C    Isotropic =   152.1025   Anisotropy =    29.5792

      9  C    Isotropic =   147.1501   Anisotropy =    43.8825

     10  C    Isotropic =   158.1642   Anisotropy =    24.9296

     11  C    Isotropic =   170.4342   Anisotropy =    27.6485

     12  O    Isotropic =  -179.2439   Anisotropy =   627.9078

     13  H    Isotropic =    25.8367   Anisotropy =    10.4964

     14  H    Isotropic =    29.7369   Anisotropy =     6.1597

     15  H    Isotropic =    29.3763   Anisotropy =     8.1242

     16  H    Isotropic =    30.1529   Anisotropy =     6.4768

     17  H    Isotropic =    30.5211   Anisotropy =     7.6410

     18  H    Isotropic =    30.9438   Anisotropy =     4.5474

     19  H    Isotropic =    30.4468   Anisotropy =     6.8023

     20  H    Isotropic =    30.7054   Anisotropy =     6.4417

     21  H    Isotropic =    30.4987   Anisotropy =     7.8846

     22  H    Isotropic =    30.1658   Anisotropy =     9.7974

     23  H    Isotropic =    30.8662   Anisotropy =     6.3598

     24  H    Isotropic =    30.3607   Anisotropy =     7.8240

     25  H    Isotropic =    30.9668   Anisotropy =     3.6795

     26  H    Isotropic =    30.8641   Anisotropy =     5.2821

     27  H    Isotropic =    30.4429   Anisotropy =     8.2674

     28  H    Isotropic =    30.7433   Anisotropy =     5.7951

     29  H    Isotropic =    30.7625   Anisotropy =     7.3924

     30  H    Isotropic =    30.9803   Anisotropy =     7.8311

     31  H    Isotropic =    30.8428   Anisotropy =    11.0600

     32  H    Isotropic =    31.1239   Anisotropy =     8.7806

 The electronic state is 1-A.
 Alpha  occ. eigenvalues --  -19.67583 -19.62151 -10.67934 -10.55432 -10.54534
 Alpha  occ. eigenvalues --  -10.53332 -10.53136 -10.52870 -10.52642 -10.52466
 Alpha  occ. eigenvalues --  -10.52250 -10.51639  -1.23572  -1.14011  -0.92171
 Alpha  occ. eigenvalues --   -0.89931  -0.86902  -0.82577  -0.78125  -0.73217
 Alpha  occ. eigenvalues --   -0.69873  -0.67407  -0.65505  -0.64722  -0.58271
 Alpha  occ. eigenvalues --   -0.57213  -0.55360  -0.54179  -0.53257  -0.51594
 Alpha  occ. eigenvalues --   -0.49872  -0.48980  -0.48214  -0.47274  -0.45992
 Alpha  occ. eigenvalues --   -0.45403  -0.44093  -0.42651  -0.41630  -0.40561
 Alpha  occ. eigenvalues --   -0.40239  -0.39892  -0.38747  -0.38171  -0.37847
 Alpha  occ. eigenvalues --   -0.36311  -0.35989  -0.35482
 Alpha virt. eigenvalues --    0.04101   0.05170   0.07348   0.07608   0.08285
 Alpha virt. eigenvalues --    0.09457   0.10211   0.10512   0.11597   0.12059
 Alpha virt. eigenvalues --    0.13412   0.13606   0.14259   0.15301   0.15442

 Mulliken charges:
               1
     1  O   -0.408710
     2  C    0.318282
     3  C   -0.283247
     4  C   -0.285933
     5  C   -0.340849
     6  C   -0.290125
     7  C   -0.257380
     8  C   -0.301479
     9  C   -0.319277
    10  C   -0.227658
    11  C   -0.430246
    12  O   -0.329847
    13  H    0.335838
    14  H    0.165204
    15  H    0.165831
    16  H    0.164925
    17  H    0.148279
    18  H    0.162055
    19  H    0.159764
    20  H    0.152648
    21  H    0.140318
    22  H    0.143585
    23  H    0.151274
    24  H    0.145481
    25  H    0.149548
    26  H    0.141838
    27  H    0.156071
    28  H    0.125483
    29  H    0.128420
    30  H    0.147898
    31  H    0.138897
    32  H    0.133113
 Sum of Mulliken charges =  -0.00000

 Dipole moment (field-independent basis, Debye):
    X=              0.5635    Y=              1.5532    Z=              0.8137  Tot=              1.8418
 Quadrupole moment (field-independent basis, Debye-Ang):
   XX=            -74.4453   YY=            -80.1774   ZZ=            -76.6367
   XY=              1.3680   XZ=              0.0571   YZ=             -5.8249

 1\1\GINC-NOTCH075\SP\RM062X\def2TZVP\C10H20O2\U6032257\03-Feb-2022\0\\
 # M062X/def2tzvp int=(grid=ultrafine) nmr=giao guess=read geom=check\\
 Ac1.xyz\\0,1\O,0,5.7108023269,-0.9597576792,-0.722280002\C,0,4.5451668
 112,-0.2887479821,-0.9154170118\C,0,3.5680480257,-0.534501845,0.209748
 6101\C,0,3.1072833076,-2.0037175029,0.258083293\C,0,2.4481986984,-2.46
 22220495,-1.045055503\C,0,1.9681485154,-3.9144219611,-0.9946897864\C,0
 ,1.2258783257,-4.4003501673,-2.2489401817\C,0,2.0432028392,-4.34637378
 67,-3.555578614\C,0,1.889925984,-3.0490394555,-4.3597621898\C,0,2.7511

 Normal termination of Gaussian 16 at Thu Feb  3 06:45:40 2022.
