 Gaussian 16, Revision C.01,

 ----------------------------------------------------------------------
 # B3LYP/6-31G(d,p) empiricaldispersion=GD3BJ int=(grid=ultrafine) opt
 freq=noraman
 ----------------------------------------------------------------------

 -------
 Ac2.xyz
 -------
 Symbolic Z-matrix:
 Charge =  0 Multiplicity = 1

 SCF Done:  E(RB3LYP) =  -630.321787489     A.U. after   14 cycles
 SCF Done:  E(RB3LYP) =  -630.326766256     A.U. after   13 cycles
 SCF Done:  E(RB3LYP) =  -630.327583061     A.U. after   12 cycles
 SCF Done:  E(RB3LYP) =  -630.328117951     A.U. after   11 cycles
 SCF Done:  E(RB3LYP) =  -630.327961405     A.U. after   12 cycles
 SCF Done:  E(RB3LYP) =  -630.328467470     A.U. after   11 cycles
 SCF Done:  E(RB3LYP) =  -630.328556843     A.U. after   11 cycles
 SCF Done:  E(RB3LYP) =  -630.328693852     A.U. after   11 cycles
 SCF Done:  E(RB3LYP) =  -630.328714108     A.U. after   10 cycles
 SCF Done:  E(RB3LYP) =  -630.328727859     A.U. after    9 cycles
 SCF Done:  E(RB3LYP) =  -630.328739284     A.U. after   10 cycles
 SCF Done:  E(RB3LYP) =  -630.328745356     A.U. after   11 cycles
 SCF Done:  E(RB3LYP) =  -630.328748803     A.U. after   10 cycles
 SCF Done:  E(RB3LYP) =  -630.328749083     A.U. after    8 cycles
 SCF Done:  E(RB3LYP) =  -630.328749252     A.U. after    8 cycles
 SCF Done:  E(RB3LYP) =  -630.328749359     A.U. after    8 cycles
 SCF Done:  E(RB3LYP) =  -630.328749318     A.U. after    7 cycles
 Optimization completed.
    -- Stationary point found.
 Normal termination of Gaussian 16 at Sat Feb  5 09:03:54 2022.

 ----------------------------------------------------------------------
 #N Geom=AllCheck Guess=TCheck SCRF=Check GenChk RB3LYP/6-31G(d,p) Freq
 ----------------------------------------------------------------------

 Structure from the checkpoint file:  "Ac2_conf-2.chk"
 -------
 Ac2.xyz
 -------
 Charge =  0 Multiplicity = 1

 SCF Done:  E(RB3LYP) =  -630.328749318     A.U. after    1 cycles

                      1                      2                      3
                      A                      A                      A
 Frequencies --     23.4497                43.1557                49.7704
 Red. masses --      4.5235                 4.6129                 9.9401
 Frc consts  --      0.0015                 0.0051                 0.0145
 IR Inten    --      0.2206                 2.8052                 1.6057

                      4                      5                      6
                      A                      A                      A
 Frequencies --     74.2522               126.1164               165.5049
 Red. masses --      5.6025                 3.7856                 3.1999
 Frc consts  --      0.0182                 0.0355                 0.0516
 IR Inten    --      2.4666                 2.5189                 3.2034

                      7                      8                      9
                      A                      A                      A
 Frequencies --    209.4211               254.7015               272.5532
 Red. masses --      1.0838                 1.0882                 1.1713
 Frc consts  --      0.0280                 0.0416                 0.0513
 IR Inten    --      0.4562                 0.0975                 1.4925

                     10                     11                     12
                      A                      A                      A
 Frequencies --    280.4701               296.5527               307.5612
 Red. masses --      2.7112                 3.0278                 3.3247
 Frc consts  --      0.1257                 0.1569                 0.1853
 IR Inten    --      5.1892                 3.0607                 4.7172

                     13                     14                     15
                      A                      A                      A
 Frequencies --    341.9117               353.0211               426.8522
 Red. masses --      3.6462                 2.5248                 2.7713
 Frc consts  --      0.2511                 0.1854                 0.2975
 IR Inten    --     20.0561                 2.4328                 0.9306

                     16                     17                     18
                      A                      A                      A
 Frequencies --    449.3737               461.2846               489.5188
 Red. masses --      3.1169                 2.8924                 1.6653
 Frc consts  --      0.3708                 0.3626                 0.2351
 IR Inten    --     24.8079                 7.5990                13.0360

                     19                     20                     21
                      A                      A                      A
 Frequencies --    543.8474               568.9321               656.2279
 Red. masses --      2.8470                 1.6151                 4.8128
 Frc consts  --      0.4961                 0.3080                 1.2211
 IR Inten    --     23.7364               109.6119                15.9283

                     22                     23                     24
                      A                      A                      A
 Frequencies --    663.1010               749.5240               766.2161
 Red. masses --      1.4131                 3.6615                 5.9686
 Frc consts  --      0.3661                 1.2119                 2.0645
 IR Inten    --    109.1470                14.0199                22.9399

                     25                     26                     27
                      A                      A                      A
 Frequencies --    785.6845               864.5557               879.9566
 Red. masses --      5.7586                 3.7388                 3.3786
 Frc consts  --      2.0944                 1.6465                 1.5414
 IR Inten    --     20.6778                30.7587                20.4803

                     28                     29                     30
                      A                      A                      A
 Frequencies --    932.8897               934.1039               971.8577
 Red. masses --      1.6244                 1.6141                 3.5020
 Frc consts  --      0.8329                 0.8298                 1.9488
 IR Inten    --      0.1183                 0.2211                35.8916

                     31                     32                     33
                      A                      A                      A
 Frequencies --    975.2810              1060.1520              1060.9578
 Red. masses --      1.1993                 1.6105                 1.4142
 Frc consts  --      0.6721                 1.0665                 0.9379
 IR Inten    --      0.2565                 5.0737                 0.4701

                     34                     35                     36
                      A                      A                      A
 Frequencies --   1081.5804              1164.1029              1198.3375
 Red. masses --      2.5630                 2.6962                 2.7473
 Frc consts  --      1.7665                 2.1527                 2.3244
 IR Inten    --     24.2756               382.4330                11.7729

                     37                     38                     39
                      A                      A                      A
 Frequencies --   1213.8904              1263.1658              1279.9457
 Red. masses --      2.5375                 1.5215                 2.6687
 Frc consts  --      2.2030                 1.4303                 2.5759
 IR Inten    --    302.4710                48.4820                15.0462

                     40                     41                     42
                      A                      A                      A
 Frequencies --   1292.1467              1306.0889              1333.7206
 Red. masses --      2.2835                 1.7844                 1.7239
 Frc consts  --      2.2463                 1.7934                 1.8067
 IR Inten    --     73.6937               129.4562                26.3498

                     43                     44                     45
                      A                      A                      A
 Frequencies --   1410.4914              1413.4378              1425.2033
 Red. masses --      1.2960                 1.3062                 2.1261
 Frc consts  --      1.5191                 1.5375                 2.5444
 IR Inten    --     18.3092                19.4733                81.8732

                     46                     47                     48
                      A                      A                      A
 Frequencies --   1438.5794              1454.6697              1483.2426
 Red. masses --      1.2401                 1.0880                 1.0460
 Frc consts  --      1.5121                 1.3564                 1.3558
 IR Inten    --     18.3582                26.9964                 0.5568

                     49                     50                     51
                      A                      A                      A
 Frequencies --   1504.2009              1504.7235              1509.3696
 Red. masses --      1.0494                 1.0504                 1.0694
 Frc consts  --      1.3990                 1.4013                 1.4355
 IR Inten    --      0.8386                 0.7047                16.8684

                     52                     53                     54
                      A                      A                      A
 Frequencies --   1520.0062              1536.1929              1544.6124
 Red. masses --      1.0532                 1.5868                 1.2015
 Frc consts  --      1.4337                 2.2063                 1.6889
 IR Inten    --      0.7639               219.9117               138.9139

                     55                     56                     57
                      A                      A                      A
 Frequencies --   1806.4265              1857.0287              3053.4130
 Red. masses --      9.8699                10.2069                 1.0355
 Frc consts  --     18.9759                20.7387                 5.6879
 IR Inten    --    236.1015               226.3213                 9.8688

                     58                     59                     60
                      A                      A                      A
 Frequencies --   3055.1287              3061.9928              3080.4221
 Red. masses --      1.0376                 1.0380                 1.0653
 Frc consts  --      5.7062                 5.7341                 5.9557
 IR Inten    --     22.0733                20.3870                21.7372

                     61                     62                     63
                      A                      A                      A
 Frequencies --   3121.9639              3124.8420              3134.7023
 Red. masses --      1.1026                 1.1025                 1.1033
 Frc consts  --      6.3316                 6.3430                 6.3878
 IR Inten    --      8.7911                13.1586                29.2493

                     64                     65                     66
                      A                      A                      A
 Frequencies --   3137.0744              3142.6016              3170.4085
 Red. masses --      1.1026                 1.0985                 1.1004
 Frc consts  --      6.3929                 6.3921                 6.5170
 IR Inten    --     44.1313                 0.9392                 0.7810

                     67                     68                     69
                      A                      A                      A
 Frequencies --   3173.4066              3628.7144              3753.8214
 Red. masses --      1.0999                 1.0762                 1.0642
 Frc consts  --      6.5259                 8.3495                 8.8356
 IR Inten    --     10.6704                29.1790                52.4140

 - Thermochemistry -
 -------------------
 Temperature   298.150 Kelvin.  Pressure   1.00000 Atm.
 Atom     1 has atomic number  8 and mass  15.99491

 Molecular mass:   175.08446 amu.
 Principal axes and moments of inertia in atomic units:
                           1         2         3
     Eigenvalues --   851.611664091.063034215.05357
           X            0.99995  -0.01005  -0.00298
           Y            0.01018   0.99871   0.04968
           Z            0.00247  -0.04970   0.99876
 This molecule is an asymmetric top.
 Rotational symmetry number  1.
 Warning -- assumption of classical behavior for rotation
           may cause significant error
 Rotational temperatures (Kelvin)      0.10171     0.02117     0.02055
 Rotational constants (GHZ):           2.11921     0.44114     0.42817
 Zero-point vibrational energy     545607.3 (Joules/Mol)
                                  130.40327 (Kcal/Mol)
 Warning -- explicit consideration of  20 degrees of freedom as
           vibrations may cause significant error
 Vibrational temperatures:     33.74    62.09    71.61   106.83   181.45
          (Kelvin)            238.12   301.31   366.46   392.14   403.53
                              426.67   442.51   491.93   507.92   614.15
                              646.55   663.69   704.31   782.48   818.57
                              944.17   954.05  1078.40  1102.41  1130.42
                             1243.90  1266.06  1342.22  1343.97  1398.29
                             1403.21  1525.32  1526.48  1556.15  1674.88
                             1724.14  1746.52  1817.41  1841.56  1859.11
                             1879.17  1918.93  2029.38  2033.62  2050.55
                             2069.79  2092.95  2134.06  2164.21  2164.96
                             2171.65  2186.95  2210.24  2222.35  2599.04
                             2671.85  4393.18  4395.65  4405.52  4432.04
                             4491.81  4495.95  4510.14  4513.55  4521.50
                             4561.51  4565.82  5220.91  5400.91

 Zero-point correction=                           0.207811 (Hartree/Particle)
 Thermal correction to Energy=                    0.221289
 Thermal correction to Enthalpy=                  0.222233
 Thermal correction to Gibbs Free Energy=         0.166515
 Sum of electronic and zero-point Energies=           -630.120938
 Sum of electronic and thermal Energies=              -630.107460
 Sum of electronic and thermal Enthalpies=            -630.106516
 Sum of electronic and thermal Free Energies=         -630.162234

                     E (Thermal)             CV                S
                      KCal/Mol        Cal/Mol-Kelvin    Cal/Mol-Kelvin
 Total                  138.861             48.913            117.268
 Electronic               0.000              0.000              0.000
 Translational            0.889              2.981             41.388
 Rotational               0.889              2.981             31.063
 Vibrational            137.083             42.951             44.817
 Vibration     1          0.593              1.985              6.318
 Vibration     2          0.595              1.980              5.109
 Vibration     3          0.595              1.978              4.826
 Vibration     4          0.599              1.966              4.037
 Vibration     5          0.611              1.927              3.004
 Vibration     6          0.624              1.885              2.486
 Vibration     7          0.642              1.826              2.049
 Vibration     8          0.665              1.755              1.698
 Vibration     9          0.676              1.724              1.580
 Vibration    10          0.680              1.710              1.531
 Vibration    11          0.690              1.680              1.436
 Vibration    12          0.697              1.659              1.375
 Vibration    13          0.721              1.592              1.203
 Vibration    14          0.729              1.569              1.153
 Vibration    15          0.789              1.412              0.869
 Vibration    16          0.808              1.362              0.798
 Vibration    17          0.819              1.336              0.762
 Vibration    18          0.845              1.273              0.685
 Vibration    19          0.899              1.153              0.557
 Vibration    20          0.925              1.098              0.506

 Optimization completed.
    -- Stationary point found.
 Normal termination of Gaussian 16 at Sat Feb  5 09:04:38 2022.

 ----------------------------------------------------------------------
 # M062X/def2tzvp int=(grid=ultrafine) pop=nbo7 polar prop=efg volume g
 uess=read geom=check
 ----------------------------------------------------------------------

 -------
 Ac2.xyz
 -------
 Structure from the checkpoint file:  "Ac2_conf-2.chk"
 Charge =  0 Multiplicity = 1

 SCF Done:  E(RM062X) =  -630.269428424     A.U. after   12 cycles

  Exact polarizability:     123.402      -4.316      94.375       1.393      -0.275      91.072
 Approx polarizability:     124.431      -7.085     115.762       1.449      -3.104     118.786

 Summary of Natural Population Analysis:

                                     Natural Population
             Natural    ---------------------------------------------
  Atom No    Charge        Core      Valence    Rydberg      Total
 --------------------------------------------------------------------
    O  1   -0.68289      2.00000     6.66089    0.02200     8.68289
    C  2    0.77924      1.99999     3.18345    0.03732     5.22076
    C  3   -0.33583      1.99999     4.31898    0.01685     6.33583
    N  4   -0.62620      1.99999     5.60199    0.02421     7.62620
    C  5    0.90643      1.99999     3.05578    0.03780     5.09357
    O  6   -0.53543      2.00000     6.51409    0.02134     8.53543
    C  7    0.27619      1.99999     3.71028    0.01355     5.72381
    C  8   -0.61366      1.99999     4.60294    0.01073     6.61366
    C  9   -0.64270      1.99999     4.63199    0.01072     6.64270
    C 10   -0.64316      1.99999     4.63241    0.01076     6.64316
    O 11   -0.66170      2.00000     6.63666    0.02505     8.66170
    O 12   -0.59066      2.00000     6.56397    0.02670     8.59066
    H 13    0.49664      0.00000     0.49996    0.00340     0.50336
    H 14    0.23085      0.00000     0.76792    0.00123     0.76915
    H 15    0.26118      0.00000     0.73724    0.00158     0.73882
    H 16    0.40546      0.00000     0.59289    0.00165     0.59454
    H 17    0.21589      0.00000     0.78300    0.00111     0.78411
    H 18    0.21154      0.00000     0.78754    0.00092     0.78846
    H 19    0.21480      0.00000     0.78409    0.00111     0.78520
    H 20    0.21274      0.00000     0.78634    0.00092     0.78726
    H 21    0.24049      0.00000     0.75836    0.00115     0.75951
    H 22    0.21227      0.00000     0.78660    0.00113     0.78773
    H 23    0.21208      0.00000     0.78700    0.00092     0.78792
    H 24    0.21605      0.00000     0.78282    0.00112     0.78395
    H 25    0.24038      0.00000     0.75849    0.00113     0.75962
 ====================================================================
 * Total *  0.00000     23.99992    69.72568    0.27440    94.00000

 Normal termination of Gaussian 16 at Sat Feb  5 09:06:38 2022.
 Gaussian 16:  ES64L-G16RevC.01  3-Jul-2019

 --------------------------------------------------------------------
 # M062X/def2tzvp int=(grid=ultrafine) nmr=giao guess=read geom=check
 --------------------------------------------------------------------

 -------
 Ac2.xyz
 -------
 Structure from the checkpoint file:  "Ac2_conf-2.chk"
 Charge =  0 Multiplicity = 1

                         Standard orientation:
 ---------------------------------------------------------------------
 Center     Atomic      Atomic             Coordinates (Angstroms)
 Number     Number       Type             X           Y           Z
 ---------------------------------------------------------------------
      1          8           0        4.139306    0.175355    0.498256
      2          6           0        2.917572    0.367049   -0.046416
      3          6           0        2.273792   -0.959555   -0.426186
      4          7           0        0.945036   -0.796792   -0.956551
      5          6           0       -0.081064   -0.593824   -0.056736
      6          8           0       -1.155304   -0.109035   -0.709692
      7          6           0       -2.396620    0.195006    0.019103
      8          6           0       -3.307229    0.727421   -1.085930
      9          6           0       -2.968818   -1.085761    0.628263
     10          6           0       -2.128903    1.272315    1.071274
     11          8           0       -0.002798   -0.861603    1.129910
     12          8           0        2.422360    1.457010   -0.214986
     13          1           0        4.485714    1.057349    0.715199
     14          1           0        2.918083   -1.469881   -1.149109
     15          1           0        2.218991   -1.584776    0.467412
     16          1           0        0.856787   -0.267774   -1.813324
     17          1           0       -2.870741    1.616995   -1.548136
     18          1           0       -4.282638    0.994184   -0.669711
     19          1           0       -3.454590   -0.029690   -1.860975
     20          1           0       -3.947990   -0.874583    1.069061
     21          1           0       -2.308682   -1.476601    1.402062
     22          1           0       -3.100067   -1.846723   -0.146856
     23          1           0       -3.075967    1.585874    1.521124
     24          1           0       -1.663603    2.146122    0.605921
     25          1           0       -1.471451    0.897325    1.855052
 ---------------------------------------------------------------------

 SCF Done:  E(RM062X) =  -630.269428424     A.U. after    1 cycles

      1  O    Isotropic =   115.9033   Anisotropy =   223.8838

      2  C    Isotropic =    -7.8473   Anisotropy =   120.4083

      3  C    Isotropic =   140.2534   Anisotropy =    47.9399

      4  N    Isotropic =   160.0579   Anisotropy =   115.6577

      5  C    Isotropic =    11.1017   Anisotropy =    81.2734

      6  O    Isotropic =   108.4312   Anisotropy =   106.1654

      7  C    Isotropic =    99.7961   Anisotropy =    79.3749

      8  C    Isotropic =   152.4923   Anisotropy =    50.0469

      9  C    Isotropic =   158.8676   Anisotropy =    42.4878

     10  C    Isotropic =   158.9202   Anisotropy =    41.9727

     11  O    Isotropic =   -24.2191   Anisotropy =   515.2353

     12  O    Isotropic =  -156.5086   Anisotropy =   664.8927

     13  H    Isotropic =    25.6348   Anisotropy =    12.0027

     14  H    Isotropic =    28.6753   Anisotropy =     8.1097

     15  H    Isotropic =    27.4026   Anisotropy =     5.1029

     16  H    Isotropic =    27.6440   Anisotropy =     6.0033

     17  H    Isotropic =    30.5156   Anisotropy =     7.7182

     18  H    Isotropic =    30.9620   Anisotropy =     8.5007

     19  H    Isotropic =    30.5637   Anisotropy =     7.8601

     20  H    Isotropic =    31.0037   Anisotropy =     8.9413

     21  H    Isotropic =    29.1862   Anisotropy =     6.2897

     22  H    Isotropic =    30.8482   Anisotropy =     7.9475

     23  H    Isotropic =    31.0352   Anisotropy =     8.8952

     24  H    Isotropic =    30.7729   Anisotropy =     7.6197

     25  H    Isotropic =    29.2412   Anisotropy =     5.9704

 The electronic state is 1-A.
 Alpha  occ. eigenvalues --  -19.68601 -19.66246 -19.63232 -19.60190 -14.77603
 Alpha  occ. eigenvalues --  -10.69335 -10.68866 -10.60969 -10.59765 -10.52897
 Alpha  occ. eigenvalues --  -10.52293 -10.52154  -1.24701  -1.22855  -1.15302
 Alpha  occ. eigenvalues --   -1.13563  -1.04458  -0.91292  -0.84639  -0.78683
 Alpha  occ. eigenvalues --   -0.78401  -0.73427  -0.68637  -0.65859  -0.60079
 Alpha  occ. eigenvalues --   -0.59418  -0.59220  -0.56353  -0.55830  -0.54941
 Alpha  occ. eigenvalues --   -0.52364  -0.51915  -0.51002  -0.49041  -0.48278
 Alpha  occ. eigenvalues --   -0.46732  -0.45419  -0.45013  -0.43099  -0.42608
 Alpha  occ. eigenvalues --   -0.41546  -0.41083  -0.40159  -0.37772  -0.36599
 Alpha  occ. eigenvalues --   -0.35505  -0.33516
 Alpha virt. eigenvalues --    0.03818   0.05510   0.06333   0.07556   0.08727
 Alpha virt. eigenvalues --    0.10777   0.10826   0.12178   0.12286   0.13670
 Alpha virt. eigenvalues --    0.13795   0.15222   0.16526   0.16918   0.17453

 Mulliken charges:
               1
     1  O   -0.404355
     2  C    0.341790
     3  C   -0.226716
     4  N   -0.367619
     5  C    0.528892
     6  O   -0.302792
     7  C    0.107178
     8  C   -0.408169
     9  C   -0.450394
    10  C   -0.451026
    11  O   -0.428303
    12  O   -0.326844
    13  H    0.341215
    14  H    0.180597
    15  H    0.200033
    16  H    0.250932
    17  H    0.153779
    18  H    0.141570
    19  H    0.151837
    20  H    0.146718
    21  H    0.184694
    22  H    0.150554
    23  H    0.145321
    24  H    0.156910
    25  H    0.184198
 Sum of Mulliken charges =  -0.00000

 Dipole moment (field-independent basis, Debye):
    X=              0.4759    Y=              0.0784    Z=             -1.4385  Tot=              1.5172
 Quadrupole moment (field-independent basis, Debye-Ang):
   XX=            -57.3848   YY=            -74.5337   ZZ=            -72.1875
   XY=             -0.5095   XZ=             -1.0622   YZ=              3.3086

 Normal termination of Gaussian 16 at Sat Feb  5 09:07:25 2022.
