 Gaussian 16, Revision C.01,

 ----------------------------------------------------------------------
 # B3LYP/6-31G(d,p) empiricaldispersion=GD3BJ int=(grid=ultrafine) opt
 freq=noraman
 ----------------------------------------------------------------------

 -------
 Ac2.xyz
 -------
 Symbolic Z-matrix:
 Charge =  0 Multiplicity = 1

 SCF Done:  E(RB3LYP) =  -630.323517408     A.U. after   14 cycles
 SCF Done:  E(RB3LYP) =  -630.327687810     A.U. after   12 cycles
 SCF Done:  E(RB3LYP) =  -630.328343635     A.U. after   11 cycles
 SCF Done:  E(RB3LYP) =  -630.328637127     A.U. after   10 cycles
 SCF Done:  E(RB3LYP) =  -630.328508968     A.U. after   11 cycles
 SCF Done:  E(RB3LYP) =  -630.328699999     A.U. after   11 cycles
 SCF Done:  E(RB3LYP) =  -630.328723903     A.U. after   10 cycles
 SCF Done:  E(RB3LYP) =  -630.328773356     A.U. after   10 cycles
 SCF Done:  E(RB3LYP) =  -630.328810252     A.U. after   10 cycles
 SCF Done:  E(RB3LYP) =  -630.328820751     A.U. after   10 cycles
 SCF Done:  E(RB3LYP) =  -630.328836460     A.U. after   11 cycles
 SCF Done:  E(RB3LYP) =  -630.328836067     A.U. after   11 cycles
 SCF Done:  E(RB3LYP) =  -630.328841747     A.U. after   10 cycles
 SCF Done:  E(RB3LYP) =  -630.328845552     A.U. after   10 cycles
 SCF Done:  E(RB3LYP) =  -630.328846913     A.U. after    9 cycles
 SCF Done:  E(RB3LYP) =  -630.328847348     A.U. after    9 cycles
 SCF Done:  E(RB3LYP) =  -630.328847520     A.U. after    9 cycles
 Optimization completed.
    -- Stationary point found.
 Normal termination of Gaussian 16 at Sat Feb  5 09:02:56 2022.

 ----------------------------------------------------------------------
 #N Geom=AllCheck Guess=TCheck SCRF=Check GenChk RB3LYP/6-31G(d,p) Freq
 ----------------------------------------------------------------------

 Structure from the checkpoint file:  "Ac2_conf-1.chk"
 -------
 Ac2.xyz
 -------
 Charge =  0 Multiplicity = 1

 SCF Done:  E(RB3LYP) =  -630.328847520     A.U. after    1 cycles

                      1                      2                      3
                      A                      A                      A
 Frequencies --     12.1477                54.1072                66.5471
 Red. masses --      4.3466                 6.9167                 4.5382
 Frc consts  --      0.0004                 0.0119                 0.0118
 IR Inten    --      0.0693                 1.5874                 4.7659

                      4                      5                      6
                      A                      A                      A
 Frequencies --     77.1918               118.8582               152.7312
 Red. masses --      5.0296                 3.7191                 3.1328
 Frc consts  --      0.0177                 0.0310                 0.0431
 IR Inten    --      1.6652                 0.8925                 7.4775

                      7                      8                      9
                      A                      A                      A
 Frequencies --    207.1474               212.6520               258.1365
 Red. masses --      2.7125                 1.2776                 1.0958
 Frc consts  --      0.0686                 0.0340                 0.0430
 IR Inten    --     12.2526                 4.0097                 0.1160

                     10                     11                     12
                      A                      A                      A
 Frequencies --    270.1974               274.8359               303.0468
 Red. masses --      3.1657                 1.1602                 3.9852
 Frc consts  --      0.1362                 0.0516                 0.2156
 IR Inten    --      0.4526                 0.1642                 0.6781

                     13                     14                     15
                      A                      A                      A
 Frequencies --    331.3670               351.8995               420.5039
 Red. masses --      3.9575                 2.4958                 2.8121
 Frc consts  --      0.2560                 0.1821                 0.2930
 IR Inten    --     12.3322                 1.0676                 1.6681

                     16                     17                     18
                      A                      A                      A
 Frequencies --    449.4020               459.7675               495.6322
 Red. masses --      2.9143                 2.8817                 1.3768
 Frc consts  --      0.3468                 0.3589                 0.1993
 IR Inten    --     16.0853                 1.3252                84.9115

                     19                     20                     21
                      A                      A                      A
 Frequencies --    518.7250               557.7951               626.7684
 Red. masses --      1.3943                 3.0612                 5.2226
 Frc consts  --      0.2211                 0.5612                 1.2088
 IR Inten    --      7.1446                22.2750                42.3149

                     22                     23                     24
                      A                      A                      A
 Frequencies --    669.1343               757.8781               768.1884
 Red. masses --      1.4276                 5.7244                 8.6344
 Frc consts  --      0.3766                 1.9372                 3.0021
 IR Inten    --    124.6866                 8.4522                16.0494

                     25                     26                     27
                      A                      A                      A
 Frequencies --    774.5702               868.6167               920.2936
 Red. masses --      4.8172                 3.4016                 2.9150
 Frc consts  --      1.7028                 1.5121                 1.4546
 IR Inten    --      8.7921                31.2409                 3.5847

                     28                     29                     30
                      A                      A                      A
 Frequencies --    931.9248               936.1275               975.1071
 Red. masses --      1.6276                 1.6693                 1.1985
 Frc consts  --      0.8329                 0.8619                 0.6714
 IR Inten    --      0.0892                 0.4505                 0.2705

                     31                     32                     33
                      A                      A                      A
 Frequencies --   1015.3955              1054.1711              1060.8453
 Red. masses --      2.3921                 1.9550                 1.4051
 Frc consts  --      1.4531                 1.2800                 0.9317
 IR Inten    --     21.1893                51.6350                 0.1935

                     34                     35                     36
                      A                      A                      A
 Frequencies --   1078.3270              1180.0340              1212.7391
 Red. masses --      2.5452                 2.5139                 3.2085
 Frc consts  --      1.7437                 2.0625                 2.7802
 IR Inten    --    109.8310               271.7455               107.5468

                     37                     38                     39
                      A                      A                      A
 Frequencies --   1215.0581              1239.7560              1261.6217
 Red. masses --      2.3456                 1.1268                 1.6760
 Frc consts  --      2.0403                 1.0204                 1.5717
 IR Inten    --    234.1333                13.2989                42.0426

                     40                     41                     42
                      A                      A                      A
 Frequencies --   1278.8989              1294.6810              1335.0569
 Red. masses --      2.6618                 2.5871                 1.7643
 Frc consts  --      2.5651                 2.5550                 1.8527
 IR Inten    --     15.6286                16.7981                19.2604

                     43                     44                     45
                      A                      A                      A
 Frequencies --   1409.7603              1412.6443              1436.6444
 Red. masses --      1.2978                 1.3053                 2.6133
 Frc consts  --      1.5196                 1.5347                 3.1779
 IR Inten    --     18.1980                17.3803               249.8667

                     46                     47                     48
                      A                      A                      A
 Frequencies --   1437.9219              1483.5693              1504.5755
 Red. masses --      1.2615                 1.0461                 1.0671
 Frc consts  --      1.5367                 1.3565                 1.4232
 IR Inten    --     58.9876                 0.5949                11.0164

                     49                     50                     51
                      A                      A                      A
 Frequencies --   1504.6522              1504.9426              1509.8912
 Red. masses --      1.0519                 1.0779                 1.0727
 Frc consts  --      1.4031                 1.4383                 1.4408
 IR Inten    --      1.3889                12.9814                17.5860

                     52                     53                     54
                      A                      A                      A
 Frequencies --   1520.4182              1539.5028              1547.9971
 Red. masses --      1.0528                 1.3703                 1.6075
 Frc consts  --      1.4339                 1.9134                 2.2696
 IR Inten    --      0.7301               144.8441               341.3451

                     55                     56                     57
                      A                      A                      A
 Frequencies --   1795.2871              1846.1859              3035.5331
 Red. masses --     10.6792                 9.7944                 1.0679
 Frc consts  --     20.2795                19.6688                 5.7978
 IR Inten    --    308.7759               204.3595                34.0419

                     58                     59                     60
                      A                      A                      A
 Frequencies --   3053.0703              3053.9924              3061.1298
 Red. masses --      1.0354                 1.0378                 1.0379
 Frc consts  --      5.6865                 5.7027                 5.7300
 IR Inten    --      8.6256                24.8402                20.3921

                     61                     62                     63
                      A                      A                      A
 Frequencies --   3080.0320              3120.7307              3122.9046
 Red. masses --      1.0935                 1.1026                 1.1024
 Frc consts  --      6.1120                 6.3269                 6.3344
 IR Inten    --      7.0444                 7.9810                18.0775

                     64                     65                     66
                      A                      A                      A
 Frequencies --   3134.5821              3136.5085              3170.0867
 Red. masses --      1.1033                 1.1026                 1.1004
 Frc consts  --      6.3872                 6.3906                 6.5154
 IR Inten    --     29.5481                44.1730                 0.8452

                     67                     68                     69
                      A                      A                      A
 Frequencies --   3173.1203              3630.7361              3757.0914
 Red. masses --      1.0998                 1.0772                 1.0642
 Frc consts  --      6.5243                 8.3665                 8.8510
 IR Inten    --     10.3774                81.6983                67.3091

 - Thermochemistry -
 -------------------
 Temperature   298.150 Kelvin.  Pressure   1.00000 Atm.
 Atom     1 has atomic number  8 and mass  15.99491

 Molecular mass:   175.08446 amu.
 Principal axes and moments of inertia in atomic units:
                           1         2         3
     Eigenvalues --   766.407624787.859065110.13468
           X            0.99997   0.00790   0.00145
           Y           -0.00791   0.99994   0.00700
           Z           -0.00140  -0.00701   0.99997
 This molecule is an asymmetric top.
 Rotational symmetry number  1.
 Warning -- assumption of classical behavior for rotation
           may cause significant error
 Rotational temperatures (Kelvin)      0.11301     0.01809     0.01695
 Rotational constants (GHZ):           2.35481     0.37694     0.35317
 Zero-point vibrational energy     544488.7 (Joules/Mol)
                                  130.13591 (Kcal/Mol)
 Warning -- explicit consideration of  20 degrees of freedom as
           vibrations may cause significant error
 Vibrational temperatures:     17.48    77.85    95.75   111.06   171.01
          (Kelvin)            219.75   298.04   305.96   371.40   388.75
                              395.43   436.02   476.76   506.30   605.01
                              646.59   661.50   713.10   746.33   802.54
                              901.78   962.74  1090.42  1105.25  1114.43
                             1249.75  1324.10  1340.83  1346.88  1402.96
                             1460.93  1516.72  1526.32  1551.47  1697.81
                             1744.86  1748.20  1783.73  1815.19  1840.05
                             1862.76  1920.85  2028.33  2032.48  2067.01
                             2068.85  2134.53  2164.75  2164.86  2165.28
                             2172.40  2187.54  2215.00  2227.22  2583.02
                             2656.25  4367.46  4392.69  4394.01  4404.28
                             4431.48  4490.04  4493.16  4509.96  4512.74
                             4561.05  4565.41  5223.82  5405.62

 Zero-point correction=                           0.207385 (Hartree/Particle)
 Thermal correction to Energy=                    0.221027
 Thermal correction to Enthalpy=                  0.221971
 Thermal correction to Gibbs Free Energy=         0.165535
 Sum of electronic and zero-point Energies=           -630.121463
 Sum of electronic and thermal Energies=              -630.107820
 Sum of electronic and thermal Enthalpies=            -630.106876
 Sum of electronic and thermal Free Energies=         -630.163312

                     E (Thermal)             CV                S
                      KCal/Mol        Cal/Mol-Kelvin    Cal/Mol-Kelvin
 Total                  138.697             49.135            118.779
 Electronic               0.000              0.000              0.000
 Translational            0.889              2.981             41.388
 Rotational               0.889              2.981             31.306
 Vibrational            136.919             43.173             46.086
 Vibration     1          0.593              1.987              7.625
 Vibration     2          0.596              1.976              4.661
 Vibration     3          0.598              1.970              4.253
 Vibration     4          0.599              1.964              3.961
 Vibration     5          0.609              1.934              3.119
 Vibration     6          0.619              1.900              2.638
 Vibration     7          0.641              1.830              2.069
 Vibration     8          0.644              1.822              2.021
 Vibration     9          0.667              1.749              1.674
 Vibration    10          0.674              1.728              1.595
 Vibration    11          0.677              1.720              1.566
 Vibration    12          0.694              1.668              1.400
 Vibration    13          0.714              1.613              1.253
 Vibration    14          0.728              1.571              1.158
 Vibration    15          0.783              1.426              0.890
 Vibration    16          0.808              1.362              0.798
 Vibration    17          0.818              1.339              0.767
 Vibration    18          0.851              1.260              0.669
 Vibration    19          0.874              1.209              0.613
 Vibration    20          0.913              1.123              0.528

 Optimization completed.
    -- Stationary point found.
 Normal termination of Gaussian 16 at Sat Feb  5 09:03:43 2022.

 ----------------------------------------------------------------------
 # M062X/def2tzvp int=(grid=ultrafine) pop=nbo7 polar prop=efg volume g
 uess=read geom=check
 ----------------------------------------------------------------------

 -------
 Ac2.xyz
 -------
 Structure from the checkpoint file:  "Ac2_conf-1.chk"
 Charge =  0 Multiplicity = 1

 SCF Done:  E(RM062X) =  -630.269944605     A.U. after   12 cycles

  Exact polarizability:     128.647       1.550     100.172       0.239      -0.462      83.213
 Approx polarizability:     125.330       0.370     130.435       1.028      -2.457     102.389

 Summary of Natural Population Analysis:

                                     Natural Population
             Natural    ---------------------------------------------
  Atom No    Charge        Core      Valence    Rydberg      Total
 --------------------------------------------------------------------
    O  1   -0.67409      2.00000     6.65184    0.02225     8.67409
    C  2    0.78855      1.99999     3.17544    0.03602     5.21145
    C  3   -0.32561      1.99999     4.30898    0.01664     6.32561
    N  4   -0.63454      2.00000     5.61215    0.02239     7.63454
    C  5    0.89793      1.99999     3.06550    0.03657     5.10207
    O  6   -0.53608      2.00000     6.51502    0.02107     8.53608
    C  7    0.27565      1.99999     3.71081    0.01355     5.72435
    C  8   -0.61322      1.99999     4.60250    0.01073     6.61322
    C  9   -0.64278      1.99999     4.63206    0.01073     6.64278
    C 10   -0.64309      1.99999     4.63239    0.01071     6.64309
    O 11   -0.66920      2.00000     6.64447    0.02474     8.66920
    O 12   -0.59935      2.00000     6.57287    0.02649     8.59935
    H 13    0.49852      0.00000     0.49835    0.00313     0.50148
    H 14    0.24799      0.00000     0.75017    0.00184     0.75201
    H 15    0.22781      0.00000     0.77057    0.00163     0.77219
    H 16    0.42938      0.00000     0.56892    0.00171     0.57062
    H 17    0.21539      0.00000     0.78350    0.00111     0.78461
    H 18    0.21115      0.00000     0.78793    0.00092     0.78885
    H 19    0.21526      0.00000     0.78363    0.00111     0.78474
    H 20    0.21244      0.00000     0.78664    0.00092     0.78756
    H 21    0.24059      0.00000     0.75827    0.00114     0.75941
    H 22    0.21181      0.00000     0.78707    0.00113     0.78819
    H 23    0.21253      0.00000     0.78655    0.00092     0.78747
    H 24    0.21221      0.00000     0.78666    0.00112     0.78779
    H 25    0.24077      0.00000     0.75808    0.00114     0.75923
 ====================================================================
 * Total *  0.00000     23.99992    69.73037    0.26971    94.00000

 Normal termination of Gaussian 16 at Sat Feb  5 09:06:00 2022.
 Gaussian 16:  ES64L-G16RevC.01  3-Jul-2019

 --------------------------------------------------------------------
 # M062X/def2tzvp int=(grid=ultrafine) nmr=giao guess=read geom=check
 --------------------------------------------------------------------

 -------
 Ac2.xyz
 -------
 Structure from the checkpoint file:  "Ac2_conf-1.chk"
 Charge =  0 Multiplicity = 1

                         Standard orientation:
 ---------------------------------------------------------------------
 Center     Atomic      Atomic             Coordinates (Angstroms)
 Number     Number       Type             X           Y           Z
 ---------------------------------------------------------------------
      1          8           0       -4.498257   -0.414473    0.195986
      2          6           0       -3.352587    0.275653    0.032967
      3          6           0       -2.182551   -0.648765   -0.214891
      4          7           0       -0.984547    0.130704   -0.384297
      5          6           0        0.235039   -0.418197   -0.115089
      6          8           0        1.186066    0.540882   -0.178237
      7          6           0        2.598540    0.202911    0.043646
      8          6           0        3.293659    1.552614   -0.128579
      9          6           0        2.790440   -0.330852    1.464421
     10          6           0        3.070280   -0.791941   -1.018353
     11          8           0        0.403080   -1.603287    0.130106
     12          8           0       -3.287307    1.485088    0.071495
     13          1           0       -5.199427    0.242685    0.342610
     14          1           0       -2.081281   -1.345906    0.624863
     15          1           0       -2.412762   -1.264635   -1.094986
     16          1           0       -1.085432    1.136114   -0.410552
     17          1           0        3.115478    1.951482   -1.130910
     18          1           0        4.371836    1.438995    0.014830
     19          1           0        2.919015    2.273954    0.602793
     20          1           0        3.857849   -0.469213    1.662331
     21          1           0        2.279132   -1.284405    1.593145
     22          1           0        2.398569    0.385862    2.192469
     23          1           0        4.148706   -0.949238   -0.918775
     24          1           0        2.873929   -0.396118   -2.019322
     25          1           0        2.560643   -1.748723   -0.907951
 ---------------------------------------------------------------------

 SCF Done:  E(RM062X) =  -630.269944605     A.U. after    1 cycles

      1  O    Isotropic =   114.0309   Anisotropy =   221.8279

      2  C    Isotropic =    -7.0349   Anisotropy =   123.7926

      3  C    Isotropic =   139.9679   Anisotropy =    43.9727

      4  N    Isotropic =   164.4662   Anisotropy =   144.5843

      5  C    Isotropic =    14.5320   Anisotropy =    77.7900

      6  O    Isotropic =   115.1741   Anisotropy =   110.0224

      7  C    Isotropic =   100.8241   Anisotropy =    77.8072

      8  C    Isotropic =   152.4767   Anisotropy =    50.1155

      9  C    Isotropic =   158.7165   Anisotropy =    42.2619

     10  C    Isotropic =   158.9021   Anisotropy =    42.4380

     11  O    Isotropic =   -19.1217   Anisotropy =   481.1947

     12  O    Isotropic =  -148.9527   Anisotropy =   651.9897

     13  H    Isotropic =    25.4803   Anisotropy =    11.9430

     14  H    Isotropic =    27.6067   Anisotropy =     5.8521

     15  H    Isotropic =    28.1746   Anisotropy =     8.0754

     16  H    Isotropic =    26.7931   Anisotropy =     9.2389

     17  H    Isotropic =    30.5685   Anisotropy =     7.7937

     18  H    Isotropic =    30.9832   Anisotropy =     8.4500

     19  H    Isotropic =    30.5733   Anisotropy =     7.7978

     20  H    Isotropic =    31.0283   Anisotropy =     8.8540

     21  H    Isotropic =    29.1714   Anisotropy =     6.2439

     22  H    Isotropic =    30.8814   Anisotropy =     7.6434

     23  H    Isotropic =    31.0189   Anisotropy =     8.8455

     24  H    Isotropic =    30.8580   Anisotropy =     7.7720

     25  H    Isotropic =    29.1409   Anisotropy =     6.3207

 The electronic state is 1-A.
 Alpha  occ. eigenvalues --  -19.69473 -19.66085 -19.64231 -19.59884 -14.77502
 Alpha  occ. eigenvalues --  -10.70104 -10.69244 -10.60970 -10.60140 -10.52903
 Alpha  occ. eigenvalues --  -10.52314 -10.52300  -1.25741  -1.22623  -1.16316
 Alpha  occ. eigenvalues --   -1.13323  -1.04463  -0.91344  -0.85426  -0.78710
 Alpha  occ. eigenvalues --   -0.78475  -0.73652  -0.69138  -0.66644  -0.60375
 Alpha  occ. eigenvalues --   -0.59589  -0.58791  -0.57268  -0.56134  -0.55382
 Alpha  occ. eigenvalues --   -0.52514  -0.51795  -0.51639  -0.49239  -0.48538
 Alpha  occ. eigenvalues --   -0.48045  -0.45513  -0.44858  -0.43151  -0.42661
 Alpha  occ. eigenvalues --   -0.42073  -0.41418  -0.40183  -0.38518  -0.36532
 Alpha  occ. eigenvalues --   -0.35068  -0.33121
 Alpha virt. eigenvalues --    0.02970   0.05338   0.06213   0.08490   0.08604
 Alpha virt. eigenvalues --    0.10621   0.10736   0.11940   0.12256   0.13709
 Alpha virt. eigenvalues --    0.14884   0.15204   0.15712   0.16451   0.17727

 Mulliken charges:
               1
     1  O   -0.399813
     2  C    0.350300
     3  C   -0.183273
     4  N   -0.385836
     5  C    0.525990
     6  O   -0.306820
     7  C    0.109096
     8  C   -0.406717
     9  C   -0.453645
    10  C   -0.453736
    11  O   -0.436845
    12  O   -0.345195
    13  H    0.343450
    14  H    0.189772
    15  H    0.172203
    16  H    0.270124
    17  H    0.152497
    18  H    0.141198
    19  H    0.152536
    20  H    0.146353
    21  H    0.185086
    22  H    0.150183
    23  H    0.146426
    24  H    0.150769
    25  H    0.185896
 Sum of Mulliken charges =  -0.00000

 Dipole moment (field-independent basis, Debye):
    X=             -0.6785    Y=              0.7173    Z=             -0.0446  Tot=              0.9884
 Quadrupole moment (field-independent basis, Debye-Ang):
   XX=            -54.5047   YY=            -80.2824   ZZ=            -71.2224
   XY=              3.1641   XZ=             -0.3915   YZ=              0.7042

 Normal termination of Gaussian 16 at Sat Feb  5 09:06:55 2022.
