 Gaussian 16, Revision C.01,

 ----------------------------------------------------------------------
 # B3LYP/6-31G(d,p) empiricaldispersion=GD3BJ int=(grid=ultrafine) opt
 freq=noraman
 ----------------------------------------------------------------------

 -------
 Ac2.xyz
 -------
 Symbolic Z-matrix:
 Charge =  0 Multiplicity = 1

 SCF Done:  E(RB3LYP) =  -630.319493538     A.U. after   14 cycles
 SCF Done:  E(RB3LYP) =  -630.324458414     A.U. after   12 cycles
 SCF Done:  E(RB3LYP) =  -630.325208525     A.U. after   12 cycles
 SCF Done:  E(RB3LYP) =  -630.325590634     A.U. after   12 cycles
 SCF Done:  E(RB3LYP) =  -630.326230169     A.U. after   13 cycles
 SCF Done:  E(RB3LYP) =  -630.326491666     A.U. after   12 cycles
 SCF Done:  E(RB3LYP) =  -630.326543810     A.U. after   12 cycles
 SCF Done:  E(RB3LYP) =  -630.326722255     A.U. after   11 cycles
 SCF Done:  E(RB3LYP) =  -630.326731268     A.U. after   10 cycles
 SCF Done:  E(RB3LYP) =  -630.326733912     A.U. after   10 cycles
 SCF Done:  E(RB3LYP) =  -630.326735021     A.U. after    8 cycles
 SCF Done:  E(RB3LYP) =  -630.326735627     A.U. after    8 cycles
 SCF Done:  E(RB3LYP) =  -630.326735995     A.U. after    8 cycles
 SCF Done:  E(RB3LYP) =  -630.326736222     A.U. after    8 cycles
 SCF Done:  E(RB3LYP) =  -630.326736503     A.U. after   10 cycles
 SCF Done:  E(RB3LYP) =  -630.326736626     A.U. after    9 cycles
 SCF Done:  E(RB3LYP) =  -630.326736704     A.U. after    8 cycles
 Optimization completed.
    -- Stationary point found.
 Normal termination of Gaussian 16 at Sat Feb  5 09:04:13 2022.

 ----------------------------------------------------------------------
 #N Geom=AllCheck Guess=TCheck SCRF=Check GenChk RB3LYP/6-31G(d,p) Freq
 ----------------------------------------------------------------------

 Structure from the checkpoint file:  "Ac2_conf-3.chk"
 -------
 Ac2.xyz
 -------
 Charge =  0 Multiplicity = 1

 SCF Done:  E(RB3LYP) =  -630.326736704     A.U. after    1 cycles

                      1                      2                      3
                      A                      A                      A
 Frequencies --     18.2919                36.1201                43.1900
 Red. masses --      5.2806                 6.6502                 4.7380
 Frc consts  --      0.0010                 0.0051                 0.0052
 IR Inten    --      0.6495                 1.8441                 0.4511

                      4                      5                      6
                      A                      A                      A
 Frequencies --     75.4684               125.3836               161.7559
 Red. masses --      5.6884                 3.7803                 3.0907
 Frc consts  --      0.0191                 0.0350                 0.0476
 IR Inten    --      3.9974                 1.5367                 3.0005

                      7                      8                      9
                      A                      A                      A
 Frequencies --    209.9731               256.1059               273.5050
 Red. masses --      1.0789                 1.0817                 1.1045
 Frc consts  --      0.0280                 0.0418                 0.0487
 IR Inten    --      0.2926                 0.0829                 0.3580

                     10                     11                     12
                      A                      A                      A
 Frequencies --    282.5929               296.6955               305.4809
 Red. masses --      2.6833                 4.0954                 3.3266
 Frc consts  --      0.1263                 0.2124                 0.1829
 IR Inten    --      5.7386                 1.8189                 1.4404

                     13                     14                     15
                      A                      A                      A
 Frequencies --    339.8947               353.0495               427.3853
 Red. masses --      3.6426                 2.5154                 2.7679
 Frc consts  --      0.2479                 0.1847                 0.2979
 IR Inten    --     19.4850                 1.6477                 0.7834

                     16                     17                     18
                      A                      A                      A
 Frequencies --    458.9547               462.7472               492.1172
 Red. masses --      3.0223                 2.9793                 1.7036
 Frc consts  --      0.3751                 0.3759                 0.2431
 IR Inten    --      2.4309                11.6823                 9.8324

                     19                     20                     21
                      A                      A                      A
 Frequencies --    536.1569               568.1285               619.0557
 Red. masses --      1.5317                 3.0261                 4.1258
 Frc consts  --      0.2594                 0.5755                 0.9316
 IR Inten    --     75.2214                64.9832                37.3075

                     22                     23                     24
                      A                      A                      A
 Frequencies --    682.0657               745.0792               766.7032
 Red. masses --      1.4037                 4.1534                 6.4214
 Frc consts  --      0.3848                 1.3585                 2.2240
 IR Inten    --    108.5245                14.8881                16.9192

                     25                     26                     27
                      A                      A                      A
 Frequencies --    782.7228               848.9102               877.9526
 Red. masses --      5.2050                 4.4281                 3.3441
 Frc consts  --      1.8788                 1.8801                 1.5187
 IR Inten    --     14.8004                16.1100                27.7889

                     28                     29                     30
                      A                      A                      A
 Frequencies --    932.5694               933.8876               967.0037
 Red. masses --      1.6255                 1.6221                 3.4115
 Frc consts  --      0.8329                 0.8335                 1.8795
 IR Inten    --      0.1281                 0.4271                32.7640

                     31                     32                     33
                      A                      A                      A
 Frequencies --    975.2886              1058.1542              1060.8452
 Red. masses --      1.1987                 1.7239                 1.4059
 Frc consts  --      0.6718                 1.1373                 0.9322
 IR Inten    --      0.2668                 6.3211                 0.2254

                     34                     35                     36
                      A                      A                      A
 Frequencies --   1078.8142              1183.6679              1190.0075
 Red. masses --      2.4199                 2.3391                 2.8171
 Frc consts  --      1.6593                 1.9309                 2.3504
 IR Inten    --     19.8140               147.4513                11.7508

                     37                     38                     39
                      A                      A                      A
 Frequencies --   1214.6305              1264.8739              1279.7365
 Red. masses --      2.5273                 1.7343                 2.6663
 Frc consts  --      2.1968                 1.6348                 2.5727
 IR Inten    --    416.7961               113.7383                15.1767

                     40                     41                     42
                      A                      A                      A
 Frequencies --   1293.8913              1310.5356              1375.4275
 Red. masses --      2.3281                 1.5813                 1.5830
 Frc consts  --      2.2964                 1.6002                 1.7644
 IR Inten    --     37.8313               165.8529                47.5016

                     43                     44                     45
                      A                      A                      A
 Frequencies --   1383.8414              1410.3823              1413.5465
 Red. masses --      2.1932                 1.2969                 1.3042
 Frc consts  --      2.4745                 1.5199                 1.5353
 IR Inten    --     24.0835                17.3193                18.4711

                     46                     47                     48
                      A                      A                      A
 Frequencies --   1438.4607              1452.7545              1483.3222
 Red. masses --      1.2401                 1.1032                 1.0460
 Frc consts  --      1.5118                 1.3718                 1.3560
 IR Inten    --     19.9848                 6.6921                 0.6370

                     49                     50                     51
                      A                      A                      A
 Frequencies --   1504.3396              1504.6220              1509.5075
 Red. masses --      1.0485                 1.0512                 1.0693
 Frc consts  --      1.3980                 1.4021                 1.4355
 IR Inten    --      0.9188                 0.4504                17.4889

                     52                     53                     54
                      A                      A                      A
 Frequencies --   1520.1709              1537.9098              1545.6744
 Red. masses --      1.0531                 1.4846                 1.3025
 Frc consts  --      1.4338                 2.0688                 1.8334
 IR Inten    --      0.8303               208.9534               214.5870

                     55                     56                     57
                      A                      A                      A
 Frequencies --   1806.4410              1854.2006              3053.3994
 Red. masses --     10.0307                10.3392                 1.0353
 Frc consts  --     19.2855                20.9435                 5.6872
 IR Inten    --    229.3489               294.2250                 9.0620

                     58                     59                     60
                      A                      A                      A
 Frequencies --   3054.8217              3061.7000              3088.0278
 Red. masses --      1.0378                 1.0380                 1.0638
 Frc consts  --      5.7058                 5.7328                 5.9768
 IR Inten    --     23.7974                19.7991                19.8720

                     61                     62                     63
                      A                      A                      A
 Frequencies --   3121.8129              3123.8803              3134.2825
 Red. masses --      1.1027                 1.1024                 1.1033
 Frc consts  --      6.3316                 6.3386                 6.3860
 IR Inten    --      6.9175                16.8981                30.0150

                     64                     65                     66
                      A                      A                      A
 Frequencies --   3137.1180              3143.9925              3170.5603
 Red. masses --      1.1025                 1.1005                 1.1004
 Frc consts  --      6.3930                 6.4091                 6.5175
 IR Inten    --     43.0620                 0.9790                 0.7157

                     67                     68                     69
                      A                      A                      A
 Frequencies --   3173.5233              3642.8418              3755.1491
 Red. masses --      1.0998                 1.0767                 1.0642
 Frc consts  --      6.5262                 8.4187                 8.8413
 IR Inten    --     10.3456                30.6128                56.6647

 - Thermochemistry -
 -------------------
 Temperature   298.150 Kelvin.  Pressure   1.00000 Atm.
 Atom     1 has atomic number  8 and mass  15.99491

 Molecular mass:   175.08446 amu.
 Principal axes and moments of inertia in atomic units:
                           1         2         3
     Eigenvalues --   844.889474091.729274217.93887
           X            0.99995   0.00829   0.00522
           Y           -0.00848   0.99921   0.03870
           Z           -0.00490  -0.03875   0.99924
 This molecule is an asymmetric top.
 Rotational symmetry number  1.
 Warning -- assumption of classical behavior for rotation
           may cause significant error
 Rotational temperatures (Kelvin)      0.10252     0.02117     0.02053
 Rotational constants (GHZ):           2.13607     0.44107     0.42787
 Zero-point vibrational energy     545443.9 (Joules/Mol)
                                  130.36423 (Kcal/Mol)
 Warning -- explicit consideration of  21 degrees of freedom as
           vibrations may cause significant error
 Vibrational temperatures:     26.32    51.97    62.14   108.58   180.40
          (Kelvin)            232.73   302.10   368.48   393.51   406.59
                              426.88   439.52   489.03   507.96   614.91
                              660.33   665.79   708.05   771.41   817.41
                              890.68   981.34  1072.00  1103.11  1126.16
                             1221.39  1263.18  1341.76  1343.66  1391.30
                             1403.22  1522.45  1526.32  1552.17  1703.03
                             1712.16  1747.58  1819.87  1841.26  1861.62
                             1885.57  1978.93  1991.04  2029.23  2033.78
                             2069.62  2090.19  2134.17  2164.41  2164.82
                             2171.84  2187.19  2212.71  2223.88  2599.07
                             2667.78  4393.16  4395.21  4405.10  4442.98
                             4491.59  4494.57  4509.53  4513.61  4523.50
                             4561.73  4565.99  5241.24  5402.82

 Zero-point correction=                           0.207749 (Hartree/Particle)
 Thermal correction to Energy=                    0.221280
 Thermal correction to Enthalpy=                  0.222224
 Thermal correction to Gibbs Free Energy=         0.165958
 Sum of electronic and zero-point Energies=           -630.118988
 Sum of electronic and thermal Energies=              -630.105457
 Sum of electronic and thermal Enthalpies=            -630.104513
 Sum of electronic and thermal Free Energies=         -630.160778

                     E (Thermal)             CV                S
                      KCal/Mol        Cal/Mol-Kelvin    Cal/Mol-Kelvin
 Total                  138.855             48.982            118.422
 Electronic               0.000              0.000              0.000
 Translational            0.889              2.981             41.388
 Rotational               0.889              2.981             31.056
 Vibrational            137.078             43.020             45.978
 Vibration     1          0.593              1.986              6.811
 Vibration     2          0.594              1.982              5.461
 Vibration     3          0.595              1.980              5.107
 Vibration     4          0.599              1.965              4.005
 Vibration     5          0.610              1.928              3.016
 Vibration     6          0.622              1.889              2.529
 Vibration     7          0.642              1.826              2.044
 Vibration     8          0.666              1.752              1.688
 Vibration     9          0.676              1.722              1.574
 Vibration    10          0.682              1.706              1.518
 Vibration    11          0.690              1.680              1.435
 Vibration    12          0.696              1.663              1.387
 Vibration    13          0.720              1.596              1.213
 Vibration    14          0.729              1.569              1.153
 Vibration    15          0.789              1.411              0.867
 Vibration    16          0.817              1.341              0.769
 Vibration    17          0.820              1.333              0.758
 Vibration    18          0.848              1.268              0.678
 Vibration    19          0.891              1.170              0.574
 Vibration    20          0.924              1.100              0.508
 Vibration    21          0.979              0.992              0.418

 Optimization completed.
    -- Stationary point found.
 Normal termination of Gaussian 16 at Sat Feb  5 09:04:55 2022.

 ----------------------------------------------------------------------
 # M062X/def2tzvp int=(grid=ultrafine) pop=nbo7 polar prop=efg volume g
 uess=read geom=check
 ----------------------------------------------------------------------

 -------
 Ac2.xyz
 -------
 Structure from the checkpoint file:  "Ac2_conf-3.chk"
 Charge =  0 Multiplicity = 1

 SCF Done:  E(RM062X) =  -630.267361358     A.U. after   12 cycles

  Exact polarizability:     124.844       4.080      93.721      -1.586       0.007      90.838
 Approx polarizability:     128.121       5.274     111.252      -2.563      -2.279     119.006

 Summary of Natural Population Analysis:

                                     Natural Population
             Natural    ---------------------------------------------
  Atom No    Charge        Core      Valence    Rydberg      Total
 --------------------------------------------------------------------
    O  1   -0.68614      2.00000     6.66406    0.02209     8.68614
    C  2    0.77828      1.99999     3.18442    0.03731     5.22172
    C  3   -0.33593      1.99999     4.31860    0.01734     6.33593
    N  4   -0.62847      2.00000     5.60532    0.02316     7.62847
    C  5    0.90416      1.99999     3.05836    0.03748     5.09584
    O  6   -0.53777      2.00000     6.51652    0.02125     8.53777
    C  7    0.27616      1.99999     3.71031    0.01354     5.72384
    C  8   -0.64302      1.99999     4.63230    0.01073     6.64302
    C  9   -0.61358      1.99999     4.60285    0.01073     6.61358
    C 10   -0.64283      1.99999     4.63208    0.01075     6.64283
    O 11   -0.66117      2.00000     6.63610    0.02508     8.66117
    O 12   -0.58884      2.00000     6.56221    0.02663     8.58884
    H 13    0.49891      0.00000     0.49753    0.00356     0.50109
    H 14    0.26443      0.00000     0.73405    0.00152     0.73557
    H 15    0.23452      0.00000     0.76429    0.00119     0.76548
    H 16    0.40553      0.00000     0.59291    0.00156     0.59447
    H 17    0.21328      0.00000     0.78581    0.00091     0.78672
    H 18    0.21269      0.00000     0.78620    0.00112     0.78731
    H 19    0.24103      0.00000     0.75783    0.00114     0.75897
    H 20    0.21471      0.00000     0.78418    0.00112     0.78529
    H 21    0.21216      0.00000     0.78693    0.00092     0.78784
    H 22    0.21532      0.00000     0.78357    0.00111     0.78468
    H 23    0.24112      0.00000     0.75775    0.00113     0.75888
    H 24    0.21240      0.00000     0.78646    0.00115     0.78760
    H 25    0.21306      0.00000     0.78602    0.00092     0.78694
 ====================================================================
 * Total *  0.00000     23.99992    69.72665    0.27343    94.00000

 Normal termination of Gaussian 16 at Sat Feb  5 09:06:55 2022.
 Gaussian 16:  ES64L-G16RevC.01  3-Jul-2019

 --------------------------------------------------------------------
 # M062X/def2tzvp int=(grid=ultrafine) nmr=giao guess=read geom=check
 --------------------------------------------------------------------

 -------
 Ac2.xyz
 -------
 Structure from the checkpoint file:  "Ac2_conf-3.chk"
 Charge =  0 Multiplicity = 1

                         Standard orientation:
 ---------------------------------------------------------------------
 Center     Atomic      Atomic             Coordinates (Angstroms)
 Number     Number       Type             X           Y           Z
 ---------------------------------------------------------------------
      1          8           0       -2.376435    1.398873   -0.184853
      2          6           0       -3.067070    0.254436    0.017727
      3          6           0       -2.295165   -0.990441   -0.405385
      4          7           0       -0.968864   -0.774636   -0.925597
      5          6           0        0.064328   -0.574408   -0.039353
      6          8           0        1.135397   -0.095515   -0.705413
      7          6           0        2.391776    0.183529    0.006978
      8          6           0        2.948196   -1.108512    0.606938
      9          6           0        3.297919    0.700520   -1.109007
     10          6           0        2.159053    1.263587    1.064755
     11          8           0       -0.005125   -0.830557    1.150562
     12          8           0       -4.185073    0.223253    0.477185
     13          1           0       -2.949484    2.116216    0.134708
     14          1           0       -2.217826   -1.625735    0.479538
     15          1           0       -2.909996   -1.521519   -1.137724
     16          1           0       -0.873754   -0.306373   -1.815007
     17          1           0        3.937449   -0.916567    1.033693
     18          1           0        3.053828   -1.870821   -0.170733
     19          1           0        2.292133   -1.487868    1.389850
     20          1           0        2.872058    1.598276   -1.565475
     21          1           0        4.283120    0.949443   -0.705044
     22          1           0        3.422014   -0.058396   -1.886308
     23          1           0        1.500500    0.900845    1.853380
     24          1           0        1.710691    2.149849    0.605863
     25          1           0        3.116994    1.554394    1.506666
 ---------------------------------------------------------------------

 SCF Done:  E(RM062X) =  -630.267361358     A.U. after    1 cycles

      1  O    Isotropic =   103.0462   Anisotropy =   212.4701

      2  C    Isotropic =    -6.3731   Anisotropy =   120.1549

      3  C    Isotropic =   139.3582   Anisotropy =    41.9736

      4  N    Isotropic =   158.0265   Anisotropy =   111.1182

      5  C    Isotropic =    12.3001   Anisotropy =    79.9967

      6  O    Isotropic =   110.0267   Anisotropy =   106.9490

      7  C    Isotropic =    99.9857   Anisotropy =    79.1707

      8  C    Isotropic =   158.9346   Anisotropy =    42.4175

      9  C    Isotropic =   152.4239   Anisotropy =    50.1326

     10  C    Isotropic =   158.6554   Anisotropy =    42.1745

     11  O    Isotropic =   -21.7784   Anisotropy =   511.1912

     12  O    Isotropic =  -149.7877   Anisotropy =   632.7586

     13  H    Isotropic =    25.6652   Anisotropy =    10.6719

     14  H    Isotropic =    27.3978   Anisotropy =     5.0236

     15  H    Isotropic =    28.6161   Anisotropy =     7.8640

     16  H    Isotropic =    27.5665   Anisotropy =     5.6831

     17  H    Isotropic =    30.9898   Anisotropy =     8.9575

     18  H    Isotropic =    30.8433   Anisotropy =     7.9634

     19  H    Isotropic =    29.1662   Anisotropy =     6.2755

     20  H    Isotropic =    30.5535   Anisotropy =     7.7057

     21  H    Isotropic =    30.9427   Anisotropy =     8.5114

     22  H    Isotropic =    30.5538   Anisotropy =     7.8834

     23  H    Isotropic =    29.1428   Anisotropy =     5.9766

     24  H    Isotropic =    30.8389   Anisotropy =     7.5216

     25  H    Isotropic =    30.9905   Anisotropy =     8.9116

 The electronic state is 1-A.
 Alpha  occ. eigenvalues --  -19.68700 -19.66600 -19.62793 -19.60444 -14.78023
 Alpha  occ. eigenvalues --  -10.69656 -10.68831 -10.61334 -10.59892 -10.53263
 Alpha  occ. eigenvalues --  -10.52601 -10.52593  -1.24663  -1.23138  -1.15034
 Alpha  occ. eigenvalues --   -1.13865  -1.04813  -0.91632  -0.84525  -0.79041
 Alpha  occ. eigenvalues --   -0.78778  -0.73153  -0.70177  -0.66308  -0.60171
 Alpha  occ. eigenvalues --   -0.59651  -0.59285  -0.56370  -0.55693  -0.54976
 Alpha  occ. eigenvalues --   -0.52292  -0.52245  -0.50909  -0.48939  -0.48641
 Alpha  occ. eigenvalues --   -0.47150  -0.45830  -0.45446  -0.43475  -0.43023
 Alpha  occ. eigenvalues --   -0.41991  -0.40617  -0.40525  -0.38748  -0.36956
 Alpha  occ. eigenvalues --   -0.35634  -0.32994
 Alpha virt. eigenvalues --    0.03761   0.04708   0.06701   0.07385   0.08644
 Alpha virt. eigenvalues --    0.10399   0.10459   0.11882   0.11970   0.13446
 Alpha virt. eigenvalues --    0.13840   0.14847   0.16054   0.16340   0.17325

 Mulliken charges:
               1
     1  O   -0.404195
     2  C    0.350057
     3  C   -0.224772
     4  N   -0.378309
     5  C    0.536221
     6  O   -0.305760
     7  C    0.106352
     8  C   -0.450291
     9  C   -0.406900
    10  C   -0.451426
    11  O   -0.425842
    12  O   -0.327022
    13  H    0.339861
    14  H    0.197687
    15  H    0.177594
    16  H    0.252046
    17  H    0.147460
    18  H    0.151153
    19  H    0.185917
    20  H    0.151604
    21  H    0.142673
    22  H    0.152736
    23  H    0.186386
    24  H    0.149519
    25  H    0.147253
 Sum of Mulliken charges =  -0.00000

 Dipole moment (field-independent basis, Debye):
    X=              1.9583    Y=              1.3918    Z=             -2.4400  Tot=              3.4242
 Quadrupole moment (field-independent basis, Debye-Ang):
   XX=            -76.2725   YY=            -67.7563   ZZ=            -72.8910
   XY=             -1.2112   XZ=              5.8940   YZ=              2.5085

 Normal termination of Gaussian 16 at Sat Feb  5 09:07:44 2022.
