 Gaussian 16, Revision C.01,

 ----------------------------------------------------------------------
 # B3LYP/6-31G(d,p) empiricaldispersion=GD3BJ int=(grid=ultrafine) opt
 freq=noraman
 ----------------------------------------------------------------------

 -------
 Ac2.xyz
 -------
 Symbolic Z-matrix:
 Charge =  0 Multiplicity = 1

 SCF Done:  E(RB3LYP) =  -630.318424278     A.U. after   14 cycles
 SCF Done:  E(RB3LYP) =  -630.323274663     A.U. after   12 cycles
 SCF Done:  E(RB3LYP) =  -630.324556485     A.U. after   13 cycles
 SCF Done:  E(RB3LYP) =  -630.324790673     A.U. after   14 cycles
 SCF Done:  E(RB3LYP) =  -630.325862736     A.U. after   12 cycles
 SCF Done:  E(RB3LYP) =  -630.326073439     A.U. after   12 cycles
 SCF Done:  E(RB3LYP) =  -630.326141901     A.U. after   12 cycles
 SCF Done:  E(RB3LYP) =  -630.326272470     A.U. after   11 cycles
 SCF Done:  E(RB3LYP) =  -630.326291202     A.U. after   11 cycles
 SCF Done:  E(RB3LYP) =  -630.326301481     A.U. after    9 cycles
 SCF Done:  E(RB3LYP) =  -630.326304004     A.U. after   10 cycles
 SCF Done:  E(RB3LYP) =  -630.326305025     A.U. after    8 cycles
 SCF Done:  E(RB3LYP) =  -630.326305468     A.U. after    8 cycles
 SCF Done:  E(RB3LYP) =  -630.326305646     A.U. after    8 cycles
 Optimization completed.
    -- Stationary point found.
 Normal termination of Gaussian 16 at Sat Feb  5 09:14:55 2022.

 ----------------------------------------------------------------------
 #N Geom=AllCheck Guess=TCheck SCRF=Check GenChk RB3LYP/6-31G(d,p) Freq
 ----------------------------------------------------------------------

 Structure from the checkpoint file:  "Ac2_conf-7.chk"
 -------
 Ac2.xyz
 -------
 Charge =  0 Multiplicity = 1

 SCF Done:  E(RB3LYP) =  -630.326305646     A.U. after    1 cycles

                      1                      2                      3
                      A                      A                      A
 Frequencies --     31.3012                45.1827                57.6060
 Red. masses --      6.4063                 3.4810                 6.9380
 Frc consts  --      0.0037                 0.0042                 0.0136
 IR Inten    --      1.7163                 0.1047                 0.6255

                      4                      5                      6
                      A                      A                      A
 Frequencies --    101.3786               124.1214               163.7728
 Red. masses --      7.1875                 3.5500                 3.3190
 Frc consts  --      0.0435                 0.0322                 0.0525
 IR Inten    --      2.6245                 0.6862                 2.0389

                      7                      8                      9
                      A                      A                      A
 Frequencies --    210.5321               245.1388               258.5280
 Red. masses --      1.0790                 2.5824                 1.1034
 Frc consts  --      0.0282                 0.0914                 0.0435
 IR Inten    --      0.0299                 2.0860                 0.1658

                     10                     11                     12
                      A                      A                      A
 Frequencies --    273.2626               293.9022               324.1154
 Red. masses --      1.0795                 5.3256                 3.1891
 Frc consts  --      0.0475                 0.2710                 0.1974
 IR Inten    --      0.1342                 0.4205                 6.2588

                     13                     14                     15
                      A                      A                      A
 Frequencies --    352.1232               382.9002               429.5090
 Red. masses --      2.4873                 2.4347                 2.7527
 Frc consts  --      0.1817                 0.2103                 0.2992
 IR Inten    --      2.3569                 9.3598                 3.3520

                     16                     17                     18
                      A                      A                      A
 Frequencies --    446.4897               464.1431               487.4322
 Red. masses --      3.4357                 2.8422                 1.4678
 Frc consts  --      0.4035                 0.3607                 0.2055
 IR Inten    --      3.3720                 9.4557                94.0689

                     19                     20                     21
                      A                      A                      A
 Frequencies --    513.2446               586.3913               633.4943
 Red. masses --      2.3052                 2.8557                 3.1226
 Frc consts  --      0.3578                 0.5786                 0.7383
 IR Inten    --     22.0447                65.5348                 6.2276

                     22                     23                     24
                      A                      A                      A
 Frequencies --    665.4477               694.8038               775.7999
 Red. masses --      2.5647                 1.9414                10.2554
 Frc consts  --      0.6691                 0.5522                 3.6366
 IR Inten    --     76.2749                69.6854                31.7952

                     25                     26                     27
                      A                      A                      A
 Frequencies --    790.4122               854.2960               869.0348
 Red. masses --      3.8550                 4.5883                 4.0073
 Frc consts  --      1.4190                 1.9730                 1.7831
 IR Inten    --      6.1621                 6.5931                10.1705

                     28                     29                     30
                      A                      A                      A
 Frequencies --    933.2435               934.6324               961.9548
 Red. masses --      1.6237                 1.6261                 2.7503
 Frc consts  --      0.8332                 0.8369                 1.4995
 IR Inten    --      0.1215                 0.2130                 0.3142

                     31                     32                     33
                      A                      A                      A
 Frequencies --    976.9889              1053.8483              1061.3367
 Red. masses --      1.1989                 2.5319                 1.4140
 Frc consts  --      0.6742                 1.6567                 0.9385
 IR Inten    --      0.3828                56.9960                 0.6052

                     34                     35                     36
                      A                      A                      A
 Frequencies --   1070.7424              1158.0168              1184.4737
 Red. masses --      1.7188                 2.3994                 2.4792
 Frc consts  --      1.1611                 1.8958                 2.0493
 IR Inten    --     19.6930               127.7195               150.4396

                     37                     38                     39
                      A                      A                      A
 Frequencies --   1216.4543              1279.6634              1281.2101
 Red. masses --      2.2101                 2.0417                 1.8894
 Frc consts  --      1.9269                 1.9699                 1.8273
 IR Inten    --    221.1260                34.1598                24.9303

                     40                     41                     42
                      A                      A                      A
 Frequencies --   1295.2249              1343.7914              1385.0851
 Red. masses --      2.2292                 1.6859                 2.9629
 Frc consts  --      2.2034                 1.7937                 3.3491
 IR Inten    --     15.3496               128.9464                76.2026

                     43                     44                     45
                      A                      A                      A
 Frequencies --   1404.3365              1410.9315              1415.6611
 Red. masses --      1.8133                 1.2990                 1.3612
 Frc consts  --      2.1070                 1.5236                 1.6073
 IR Inten    --    134.8236                16.7660                47.5837

                     46                     47                     48
                      A                      A                      A
 Frequencies --   1439.2425              1465.4097              1478.2843
 Red. masses --      1.2401                 1.4372                 1.2299
 Frc consts  --      1.5135                 1.8184                 1.5835
 IR Inten    --     20.0540                19.4130                76.0753

                     49                     50                     51
                      A                      A                      A
 Frequencies --   1482.7301              1503.8655              1504.2699
 Red. masses --      1.0484                 1.0521                 1.0492
 Frc consts  --      1.3580                 1.4019                 1.3989
 IR Inten    --      1.8356                 0.2684                 0.3394

                     52                     53                     54
                      A                      A                      A
 Frequencies --   1509.1375              1519.3659              1541.9819
 Red. masses --      1.0678                 1.0537                 1.0577
 Frc consts  --      1.4328                 1.4332                 1.4818
 IR Inten    --     13.6991                 1.3239                15.9097

                     55                     56                     57
                      A                      A                      A
 Frequencies --   1824.7145              1854.5140              3053.7253
 Red. masses --      9.2990                10.2271                 1.0354
 Frc consts  --     18.2421                20.7234                 5.6885
 IR Inten    --    427.6198               221.7459                 7.8461

                     58                     59                     60
                      A                      A                      A
 Frequencies --   3055.5196              3062.2995              3081.9997
 Red. masses --      1.0373                 1.0378                 1.0643
 Frc consts  --      5.7062                 5.7338                 5.9565
 IR Inten    --     24.5727                16.5170                16.1181

                     61                     62                     63
                      A                      A                      A
 Frequencies --   3122.8524              3125.9069              3134.9824
 Red. masses --      1.1026                 1.1026                 1.1032
 Frc consts  --      6.3353                 6.3479                 6.3883
 IR Inten    --      8.6211                14.5785                26.7178

                     64                     65                     66
                      A                      A                      A
 Frequencies --   3138.0032              3142.2852              3168.7944
 Red. masses --      1.1028                 1.1009                 1.1007
 Frc consts  --      6.3979                 6.4047                 6.5117
 IR Inten    --     43.9432                 4.0023                 2.1296

                     67                     68                     69
                      A                      A                      A
 Frequencies --   3172.7356              3661.0089              3758.9678
 Red. masses --      1.1002                 1.0773                 1.0642
 Frc consts  --      6.5250                 8.5074                 8.8599
 IR Inten    --      7.9876                46.6486                53.6534

 - Thermochemistry -
 -------------------
 Temperature   298.150 Kelvin.  Pressure   1.00000 Atm.
 Atom     1 has atomic number  8 and mass  15.99491

 Molecular mass:   175.08446 amu.
 Principal axes and moments of inertia in atomic units:
                           1         2         3
     Eigenvalues --  1349.069502559.473573100.21346
           X            0.99890   0.04680   0.00343
           Y           -0.04685   0.99877   0.01634
           Z           -0.00266  -0.01648   0.99986
 This molecule is an asymmetric top.
 Rotational symmetry number  1.
 Warning -- assumption of classical behavior for rotation
           may cause significant error
 Rotational temperatures (Kelvin)      0.06420     0.03384     0.02794
 Rotational constants (GHZ):           1.33777     0.70512     0.58213
 Zero-point vibrational energy     545763.6 (Joules/Mol)
                                  130.44064 (Kcal/Mol)
 Warning -- explicit consideration of  20 degrees of freedom as
           vibrations may cause significant error
 Vibrational temperatures:     45.04    65.01    82.88   145.86   178.58
          (Kelvin)            235.63   302.91   352.70   371.96   393.16
                              422.86   466.33   506.63   550.91   617.97
                              642.40   667.80   701.31   738.44   843.69
                              911.46   957.43   999.67  1116.20  1137.23
                             1229.14  1250.35  1342.73  1344.73  1384.04
                             1405.67  1516.25  1527.03  1540.56  1666.13
                             1704.19  1750.21  1841.15  1843.38  1863.54
                             1933.42  1992.83  2020.53  2030.02  2036.82
                             2070.75  2108.40  2126.92  2133.32  2163.73
                             2164.31  2171.31  2186.03  2218.57  2625.36
                             2668.23  4393.63  4396.21  4405.97  4434.31
                             4493.09  4497.48  4510.54  4514.89  4521.05
                             4559.19  4564.86  5267.38  5408.32

 Zero-point correction=                           0.207870 (Hartree/Particle)
 Thermal correction to Energy=                    0.221287
 Thermal correction to Enthalpy=                  0.222231
 Thermal correction to Gibbs Free Energy=         0.167343
 Sum of electronic and zero-point Energies=           -630.118435
 Sum of electronic and thermal Energies=              -630.105019
 Sum of electronic and thermal Enthalpies=            -630.104075
 Sum of electronic and thermal Free Energies=         -630.158962

                     E (Thermal)             CV                S
                      KCal/Mol        Cal/Mol-Kelvin    Cal/Mol-Kelvin
 Total                  138.860             49.018            115.521
 Electronic               0.000              0.000              0.000
 Translational            0.889              2.981             41.388
 Rotational               0.889              2.981             30.749
 Vibrational            137.082             43.056             43.384
 Vibration     1          0.594              1.983              5.745
 Vibration     2          0.595              1.979              5.018
 Vibration     3          0.596              1.974              4.538
 Vibration     4          0.604              1.948              3.428
 Vibration     5          0.610              1.929              3.035
 Vibration     6          0.623              1.887              2.506
 Vibration     7          0.643              1.825              2.039
 Vibration     8          0.660              1.771              1.765
 Vibration     9          0.667              1.748              1.672
 Vibration    10          0.676              1.723              1.575
 Vibration    11          0.689              1.685              1.451
 Vibration    12          0.709              1.627              1.289
 Vibration    13          0.729              1.571              1.157
 Vibration    14          0.752              1.507              1.028
 Vibration    15          0.791              1.406              0.860
 Vibration    16          0.806              1.369              0.806
 Vibration    17          0.822              1.330              0.754
 Vibration    18          0.843              1.278              0.690
 Vibration    19          0.868              1.221              0.626
 Vibration    20          0.943              1.061              0.474

                           ! Non-Optimized Parameters !
 Normal termination of Gaussian 16 at Sat Feb  5 09:15:51 2022.

 ----------------------------------------------------------------------
 # M062X/def2tzvp int=(grid=ultrafine) pop=nbo7 polar prop=efg volume g
 uess=read geom=check
 ----------------------------------------------------------------------

 -------
 Ac2.xyz
 -------
 Structure from the checkpoint file:  "Ac2_conf-7.chk"
 Charge =  0 Multiplicity = 1

 SCF Done:  E(RM062X) =  -630.266132603     A.U. after   12 cycles

  Exact polarizability:     108.697      -0.734     103.335       4.840      -2.341      92.341
 Approx polarizability:     118.881      -3.818     125.702       7.621      -7.391     115.026

 Summary of Natural Population Analysis:

                                     Natural Population
             Natural    ---------------------------------------------
  Atom No    Charge        Core      Valence    Rydberg      Total
 --------------------------------------------------------------------
    O  1   -0.68871      2.00000     6.66611    0.02260     8.68871
    C  2    0.78562      1.99999     3.17617    0.03822     5.21438
    C  3   -0.32330      1.99999     4.30650    0.01680     6.32330
    N  4   -0.63140      2.00000     5.60857    0.02283     7.63140
    C  5    0.90621      1.99999     3.05705    0.03675     5.09379
    O  6   -0.55657      2.00000     6.53409    0.02248     8.55657
    C  7    0.28001      1.99999     3.70592    0.01407     5.71999
    C  8   -0.61595      1.99999     4.60512    0.01084     6.61595
    C  9   -0.64271      1.99999     4.63198    0.01074     6.64271
    C 10   -0.64245      1.99999     4.63169    0.01076     6.64245
    O 11   -0.64546      2.00000     6.62048    0.02499     8.64546
    O 12   -0.58905      2.00000     6.56230    0.02676     8.58905
    H 13    0.49823      0.00000     0.49824    0.00353     0.50177
    H 14    0.23612      0.00000     0.76265    0.00124     0.76388
    H 15    0.24003      0.00000     0.75834    0.00162     0.75997
    H 16    0.40925      0.00000     0.58925    0.00151     0.59075
    H 17    0.21587      0.00000     0.78301    0.00112     0.78413
    H 18    0.21231      0.00000     0.78678    0.00091     0.78769
    H 19    0.21914      0.00000     0.77964    0.00122     0.78086
    H 20    0.21474      0.00000     0.78434    0.00091     0.78526
    H 21    0.24053      0.00000     0.75827    0.00120     0.75947
    H 22    0.20971      0.00000     0.78902    0.00127     0.79029
    H 23    0.21295      0.00000     0.78614    0.00091     0.78705
    H 24    0.21300      0.00000     0.78589    0.00112     0.78700
    H 25    0.24187      0.00000     0.75697    0.00116     0.75813
 ====================================================================
 * Total *  0.00000     23.99992    69.72451    0.27557    94.00000

 Normal termination of Gaussian 16 at Sat Feb  5 09:18:34 2022.
 Gaussian 16:  ES64L-G16RevC.01  3-Jul-2019

 --------------------------------------------------------------------
 # M062X/def2tzvp int=(grid=ultrafine) nmr=giao guess=read geom=check
 --------------------------------------------------------------------

 -------
 Ac2.xyz
 -------
 Structure from the checkpoint file:  "Ac2_conf-7.chk"
 Charge =  0 Multiplicity = 1

                         Standard orientation:
 ---------------------------------------------------------------------
 Center     Atomic      Atomic             Coordinates (Angstroms)
 Number     Number       Type             X           Y           Z
 ---------------------------------------------------------------------
      1          8           0       -2.073104    0.210198    1.326257
      2          6           0       -2.262747    0.577132    0.038412
      3          6           0       -2.039572   -0.572190   -0.940058
      4          7           0       -1.141415   -1.612047   -0.489919
      5          6           0        0.142684   -1.335006   -0.079090
      6          8           0        0.483395   -0.092649   -0.487134
      7          6           0        1.739408    0.530690   -0.046824
      8          6           0        1.645802    1.924750   -0.664369
      9          6           0        1.759988    0.608490    1.480433
     10          6           0        2.930194   -0.245719   -0.608274
     11          8           0        0.838258   -2.120072    0.537855
     12          8           0       -2.608406    1.687496   -0.291878
     13          1           0       -2.247279    1.003877    1.859389
     14          1           0       -3.014813   -1.022101   -1.151399
     15          1           0       -1.681346   -0.119379   -1.865973
     16          1           0       -1.530147   -2.425314   -0.037285
     17          1           0        1.592621    1.858713   -1.754447
     18          1           0        2.525914    2.514683   -0.393850
     19          1           0        0.751302    2.442660   -0.307553
     20          1           0        2.627465    1.189911    1.806517
     21          1           0        1.814054   -0.387041    1.920624
     22          1           0        0.855157    1.106318    1.841387
     23          1           0        3.857565    0.284227   -0.369698
     24          1           0        2.850809   -0.322520   -1.696663
     25          1           0        2.972912   -1.248384   -0.183783
 ---------------------------------------------------------------------

 SCF Done:  E(RM062X) =  -630.266132603     A.U. after    1 cycles

      1  O    Isotropic =   105.2790   Anisotropy =   214.5165

      2  C    Isotropic =    -7.0497   Anisotropy =   124.5394

      3  C    Isotropic =   136.5019   Anisotropy =    32.9988

      4  N    Isotropic =   158.4385   Anisotropy =   122.8724

      5  C    Isotropic =    14.1626   Anisotropy =    81.1849

      6  O    Isotropic =   109.7416   Anisotropy =   119.9808

      7  C    Isotropic =    99.3317   Anisotropy =    80.3329

      8  C    Isotropic =   152.4796   Anisotropy =    49.5679

      9  C    Isotropic =   158.7438   Anisotropy =    40.8764

     10  C    Isotropic =   158.6028   Anisotropy =    42.6041

     11  O    Isotropic =   -26.7250   Anisotropy =   456.4273

     12  O    Isotropic =  -159.4927   Anisotropy =   633.8167

     13  H    Isotropic =    25.7032   Anisotropy =    10.0974

     14  H    Isotropic =    28.6831   Anisotropy =     7.6070

     15  H    Isotropic =    27.9258   Anisotropy =     5.0146

     16  H    Isotropic =    27.7487   Anisotropy =     9.8048

     17  H    Isotropic =    30.5716   Anisotropy =     7.5901

     18  H    Isotropic =    30.9786   Anisotropy =     8.6972

     19  H    Isotropic =    30.5777   Anisotropy =     6.7863

     20  H    Isotropic =    31.0229   Anisotropy =     9.0368

     21  H    Isotropic =    29.2550   Anisotropy =     5.9822

     22  H    Isotropic =    31.0177   Anisotropy =     7.0149

     23  H    Isotropic =    31.0062   Anisotropy =     9.1348

     24  H    Isotropic =    30.8288   Anisotropy =     8.0407

     25  H    Isotropic =    29.1332   Anisotropy =     6.7092

 The electronic state is 1-A.
 Alpha  occ. eigenvalues --  -19.68828 -19.66746 -19.63169 -19.60156 -14.78095
 Alpha  occ. eigenvalues --  -10.69593 -10.69117 -10.61358 -10.60432 -10.53081
 Alpha  occ. eigenvalues --  -10.52725 -10.52521  -1.24907  -1.23144  -1.15291
 Alpha  occ. eigenvalues --   -1.13726  -1.04893  -0.91342  -0.84883  -0.79023
 Alpha  occ. eigenvalues --   -0.78801  -0.73864  -0.71492  -0.63635  -0.60783
 Alpha  occ. eigenvalues --   -0.59876  -0.59508  -0.57167  -0.54985  -0.54650
 Alpha  occ. eigenvalues --   -0.53463  -0.51787  -0.51004  -0.49192  -0.48681
 Alpha  occ. eigenvalues --   -0.47804  -0.45817  -0.45444  -0.43390  -0.43122
 Alpha  occ. eigenvalues --   -0.41996  -0.41135  -0.40371  -0.38517  -0.37012
 Alpha  occ. eigenvalues --   -0.35307  -0.33084
 Alpha virt. eigenvalues --    0.03289   0.04187   0.06886   0.07334   0.07993
 Alpha virt. eigenvalues --    0.09820   0.10983   0.11775   0.12479   0.13061
 Alpha virt. eigenvalues --    0.14140   0.15104   0.15950   0.17132   0.17646

 Mulliken charges:
               1
     1  O   -0.400152
     2  C    0.326786
     3  C   -0.191894
     4  N   -0.372393
     5  C    0.499931
     6  O   -0.299173
     7  C    0.075257
     8  C   -0.406880
     9  C   -0.437430
    10  C   -0.435169
    11  O   -0.401632
    12  O   -0.322940
    13  H    0.340237
    14  H    0.173130
    15  H    0.180493
    16  H    0.257205
    17  H    0.153118
    18  H    0.145127
    19  H    0.160925
    20  H    0.150661
    21  H    0.187981
    22  H    0.135698
    23  H    0.145408
    24  H    0.149845
    25  H    0.185863
 Sum of Mulliken charges =   0.00000

 Dipole moment (field-independent basis, Debye):
    X=             -0.6999    Y=              0.5837    Z=              0.2235  Tot=              0.9384
 Quadrupole moment (field-independent basis, Debye-Ang):
   XX=            -67.2758   YY=            -78.6520   ZZ=            -69.5615
   XY=             11.6587   XZ=             -2.6778   YZ=              5.9718

 Normal termination of Gaussian 16 at Sat Feb  5 09:19:38 2022.
