 Gaussian 16, Revision C.01,

 ----------------------------------------------------------------------
 # B3LYP/6-31G(d,p) empiricaldispersion=GD3BJ int=(grid=ultrafine) opt
 freq=noraman
 ----------------------------------------------------------------------

 -------
 Ac2.xyz
 -------
 Symbolic Z-matrix:
 Charge =  0 Multiplicity = 1

 SCF Done:  E(RB3LYP) =  -630.322114996     A.U. after   14 cycles
 SCF Done:  E(RB3LYP) =  -630.326079412     A.U. after   11 cycles
 SCF Done:  E(RB3LYP) =  -630.326861305     A.U. after   11 cycles
 SCF Done:  E(RB3LYP) =  -630.327086974     A.U. after   10 cycles
 SCF Done:  E(RB3LYP) =  -630.327109729     A.U. after   10 cycles
 SCF Done:  E(RB3LYP) =  -630.327112177     A.U. after    8 cycles
 SCF Done:  E(RB3LYP) =  -630.327110175     A.U. after    8 cycles
 SCF Done:  E(RB3LYP) =  -630.327111503     A.U. after    8 cycles
 SCF Done:  E(RB3LYP) =  -630.327112616     A.U. after    8 cycles
 SCF Done:  E(RB3LYP) =  -630.327112850     A.U. after    7 cycles
 Optimization completed.
    -- Stationary point found.
 Normal termination of Gaussian 16 at Sat Feb  5 09:13:22 2022.

 ----------------------------------------------------------------------
 #N Geom=AllCheck Guess=TCheck SCRF=Check GenChk RB3LYP/6-31G(d,p) Freq
 ----------------------------------------------------------------------

 Structure from the checkpoint file:  "Ac2_conf-6.chk"
 -------
 Ac2.xyz
 -------
 Charge =  0 Multiplicity = 1

 SCF Done:  E(RB3LYP) =  -630.327112850     A.U. after    1 cycles

                      1                      2                      3
                      A                      A                      A
 Frequencies --     22.3711                51.5499                75.9141
 Red. masses --      4.4569                 5.5675                 4.2479
 Frc consts  --      0.0013                 0.0087                 0.0144
 IR Inten    --      0.2222                 1.4448                 2.0606

                      4                      5                      6
                      A                      A                      A
 Frequencies --     84.1770               109.8107               132.2014
 Red. masses --      5.0316                 3.3407                 3.6910
 Frc consts  --      0.0210                 0.0237                 0.0380
 IR Inten    --      0.8252                 4.5460                 2.0297

                      7                      8                      9
                      A                      A                      A
 Frequencies --    205.2471               211.7747               220.6114
 Red. masses --      6.3975                 1.0756                 4.0673
 Frc consts  --      0.1588                 0.0284                 0.1166
 IR Inten    --      3.3306                 0.0022                 4.9490

                     10                     11                     12
                      A                      A                      A
 Frequencies --    259.0175               274.5676               325.5452
 Red. masses --      1.0403                 1.0720                 3.1877
 Frc consts  --      0.0411                 0.0476                 0.1990
 IR Inten    --      0.0705                 0.0000                 7.7567

                     13                     14                     15
                      A                      A                      A
 Frequencies --    352.4488               384.6515               409.7541
 Red. masses --      2.4798                 4.5980                 3.2623
 Frc consts  --      0.1815                 0.4008                 0.3227
 IR Inten    --      1.6841                 2.5560                 3.6639

                     16                     17                     18
                      A                      A                      A
 Frequencies --    445.4221               461.3270               500.6580
 Red. masses --      2.9477                 2.9107                 1.3301
 Frc consts  --      0.3446                 0.3650                 0.1964
 IR Inten    --      3.5744                 1.2722                77.9352

                     19                     20                     21
                      A                      A                      A
 Frequencies --    523.3183               574.7295               623.3744
 Red. masses --      1.2607                 4.3976                 4.2951
 Frc consts  --      0.2034                 0.8558                 0.9834
 IR Inten    --      7.8841                 7.8673                84.8508

                     22                     23                     24
                      A                      A                      A
 Frequencies --    669.1299               693.4897               762.2159
 Red. masses --      1.4395                 4.6545                11.9368
 Frc consts  --      0.3797                 1.3189                 4.0860
 IR Inten    --    121.3996                 0.8756                29.6799

                     25                     26                     27
                      A                      A                      A
 Frequencies --    789.9504               864.2314               906.3216
 Red. masses --      4.3559                 3.5149                 3.2618
 Frc consts  --      1.6015                 1.5468                 1.5786
 IR Inten    --      0.1482                 0.3459                11.4489

                     28                     29                     30
                      A                      A                      A
 Frequencies --    932.5420               934.0513               975.2244
 Red. masses --      1.6262                 1.6172                 1.1988
 Frc consts  --      0.8332                 0.8313                 0.6717
 IR Inten    --      0.0823                 0.5633                 0.3124

                     31                     32                     33
                      A                      A                      A
 Frequencies --   1022.9816              1043.4390              1060.9678
 Red. masses --      2.1005                 3.8806                 1.4047
 Frc consts  --      1.2951                 2.4893                 0.9316
 IR Inten    --      2.9271               127.5149                 0.1926

                     34                     35                     36
                      A                      A                      A
 Frequencies --   1068.7603              1171.6576              1205.9204
 Red. masses --      1.6919                 2.7177                 2.8072
 Frc consts  --      1.1386                 2.1981                 2.4052
 IR Inten    --     31.5803               217.4686               243.2810

                     37                     38                     39
                      A                      A                      A
 Frequencies --   1220.7725              1236.3991              1279.5583
 Red. masses --      2.2640                 1.0849                 2.6676
 Frc consts  --      1.9879                 0.9772                 2.5733
 IR Inten    --    103.7275                 0.0398                15.6963

                     40                     41                     42
                      A                      A                      A
 Frequencies --   1291.9479              1301.9250              1382.3126
 Red. masses --      2.7208                 1.3465                 2.4352
 Frc consts  --      2.6757                 1.3447                 2.7415
 IR Inten    --     37.5214                 3.3548               147.4601

                     43                     44                     45
                      A                      A                      A
 Frequencies --   1409.9162              1411.5094              1423.4621
 Red. masses --      1.2989                 1.3995                 3.1451
 Frc consts  --      1.5213                 1.6428                 3.7548
 IR Inten    --     19.3182                19.2749               447.6987

                     46                     47                     48
                      A                      A                      A
 Frequencies --   1437.4184              1483.2664              1484.4883
 Red. masses --      1.2410                 1.0460                 1.8140
 Frc consts  --      1.5107                 1.3559                 2.3552
 IR Inten    --     27.3645                 0.6712                12.4182

                     49                     50                     51
                      A                      A                      A
 Frequencies --   1504.5418              1504.5860              1508.9564
 Red. masses --      1.0527                 1.0510                 1.0791
 Frc consts  --      1.4040                 1.4018                 1.4476
 IR Inten    --      0.4299                 1.5112                28.9877

                     52                     53                     54
                      A                      A                      A
 Frequencies --   1512.3064              1520.6039              1543.6209
 Red. masses --      1.1974                 1.0525                 1.0586
 Frc consts  --      1.6135                 1.4339                 1.4861
 IR Inten    --     14.9571                 0.8753                16.4908

                     55                     56                     57
                      A                      A                      A
 Frequencies --   1818.3747              1849.0220              3040.2426
 Red. masses --      9.6665                 9.8225                 1.0589
 Frc consts  --     18.8316                19.7859                 5.7669
 IR Inten    --    492.6154               229.6080                24.9406

                     58                     59                     60
                      A                      A                      A
 Frequencies --   3052.0133              3053.5722              3060.5052
 Red. masses --      1.0354                 1.0379                 1.0382
 Frc consts  --      5.6822                 5.7021                 5.7294
 IR Inten    --      9.6511                25.5633                19.0102

                     61                     62                     63
                      A                      A                      A
 Frequencies --   3064.7675              3119.9379              3122.2029
 Red. masses --      1.1031                 1.1027                 1.1024
 Frc consts  --      6.1045                 6.3241                 6.3313
 IR Inten    --      9.7681                 7.0455                18.6045

                     64                     65                     66
                      A                      A                      A
 Frequencies --   3132.0095              3136.0172              3171.7682
 Red. masses --      1.1032                 1.1025                 1.1002
 Frc consts  --      6.3763                 6.3882                 6.5211
 IR Inten    --     31.6923                46.0725                 0.5574

                     67                     68                     69
                      A                      A                      A
 Frequencies --   3174.7082              3644.6367              3756.5956
 Red. masses --      1.0996                 1.0773                 1.0642
 Frc consts  --      6.5298                 8.4313                 8.8487
 IR Inten    --      8.2382               111.7695                68.4760

 - Thermochemistry -
 -------------------
 Temperature   298.150 Kelvin.  Pressure   1.00000 Atm.
 Atom     1 has atomic number  8 and mass  15.99491

 Molecular mass:   175.08446 amu.
 Principal axes and moments of inertia in atomic units:
                           1         2         3
     Eigenvalues --   934.833274283.286474803.56972
           X            0.99998   0.00637   0.00000
           Y           -0.00637   0.99998   0.00000
           Z           -0.00000  -0.00000   1.00000
 This molecule is an asymmetric top.
 Rotational symmetry number  1.
 Warning -- assumption of classical behavior for rotation
           may cause significant error
 Rotational temperatures (Kelvin)      0.09265     0.02022     0.01803
 Rotational constants (GHZ):           1.93055     0.42134     0.37571
 Zero-point vibrational energy     544320.7 (Joules/Mol)
                                  130.09578 (Kcal/Mol)
 Warning -- explicit consideration of  20 degrees of freedom as
           vibrations may cause significant error
 Vibrational temperatures:     32.19    74.17   109.22   121.11   157.99
          (Kelvin)            190.21   295.30   304.70   317.41   372.67
                              395.04   468.39   507.10   553.43   589.54
                              640.86   663.75   720.34   752.94   826.91
                              896.90   962.73   997.78  1096.66  1136.56
                             1243.44  1303.99  1341.72  1343.89  1403.13
                             1471.84  1501.28  1526.50  1537.71  1685.75
                             1735.05  1756.42  1778.90  1841.00  1858.82
                             1873.18  1988.84  2028.56  2030.85  2048.04
                             2068.12  2134.09  2135.85  2164.70  2164.76
                             2171.05  2175.87  2187.81  2220.93  2616.24
                             2660.33  4374.23  4391.17  4393.41  4403.38
                             4409.52  4488.89  4492.15  4506.26  4512.03
                             4563.47  4567.70  5243.82  5404.90

 Zero-point correction=                           0.207321 (Hartree/Particle)
 Thermal correction to Energy=                    0.220976
 Thermal correction to Enthalpy=                  0.221920
 Thermal correction to Gibbs Free Energy=         0.165959
 Sum of electronic and zero-point Energies=           -630.119792
 Sum of electronic and thermal Energies=              -630.106137
 Sum of electronic and thermal Enthalpies=            -630.105193
 Sum of electronic and thermal Free Energies=         -630.161154

                     E (Thermal)             CV                S
                      KCal/Mol        Cal/Mol-Kelvin    Cal/Mol-Kelvin
 Total                  138.665             49.189            117.780
 Electronic               0.000              0.000              0.000
 Translational            0.889              2.981             41.388
 Rotational               0.889              2.981             31.331
 Vibrational            136.887             43.227             45.061
 Vibration     1          0.593              1.985              6.412
 Vibration     2          0.596              1.977              4.757
 Vibration     3          0.599              1.965              3.994
 Vibration     4          0.601              1.960              3.791
 Vibration     5          0.606              1.941              3.272
 Vibration     6          0.612              1.921              2.914
 Vibration     7          0.640              1.832              2.086
 Vibration     8          0.643              1.823              2.028
 Vibration     9          0.647              1.810              1.954
 Vibration    10          0.668              1.748              1.668
 Vibration    11          0.677              1.720              1.567
 Vibration    12          0.710              1.624              1.282
 Vibration    13          0.729              1.570              1.155
 Vibration    14          0.754              1.503              1.021
 Vibration    15          0.774              1.449              0.927
 Vibration    16          0.805              1.371              0.810
 Vibration    17          0.819              1.336              0.762
 Vibration    18          0.856              1.249              0.656
 Vibration    19          0.878              1.198              0.602
 Vibration    20          0.931              1.086              0.495

 Optimization completed.
    -- Stationary point found.
 Normal termination of Gaussian 16 at Sat Feb  5 09:14:05 2022.

 ----------------------------------------------------------------------
 # M062X/def2tzvp int=(grid=ultrafine) pop=nbo7 polar prop=efg volume g
 uess=read geom=check
 ----------------------------------------------------------------------

 -------
 Ac2.xyz
 -------
 Structure from the checkpoint file:  "Ac2_conf-6.chk"
 Charge =  0 Multiplicity = 1

 SCF Done:  E(RM062X) =  -630.267814775     A.U. after   12 cycles

  Exact polarizability:     125.170      -0.924     103.534      -0.003      -0.004      82.001
 Approx polarizability:     126.503      -1.554     130.753      -0.003      -0.009     101.272

 Summary of Natural Population Analysis:

                                     Natural Population
             Natural    ---------------------------------------------
  Atom No    Charge        Core      Valence    Rydberg      Total
 --------------------------------------------------------------------
    O  1   -0.67549      2.00000     6.65331    0.02218     8.67549
    C  2    0.78849      1.99999     3.17558    0.03594     5.21151
    C  3   -0.31868      1.99999     4.30274    0.01595     6.31868
    N  4   -0.63803      2.00000     5.61611    0.02192     7.63803
    C  5    0.89923      1.99999     3.06483    0.03596     5.10077
    O  6   -0.55410      2.00000     6.53301    0.02109     8.55410
    C  7    0.27747      1.99999     3.70870    0.01384     5.72253
    C  8   -0.61345      1.99999     4.60277    0.01069     6.61345
    C  9   -0.64293      1.99999     4.63221    0.01072     6.64293
    C 10   -0.64292      1.99999     4.63220    0.01072     6.64292
    O 11   -0.65424      2.00000     6.62952    0.02473     8.65424
    O 12   -0.59431      2.00000     6.56772    0.02659     8.59431
    H 13    0.49929      0.00000     0.49761    0.00310     0.50071
    H 14    0.23175      0.00000     0.76647    0.00178     0.76825
    H 15    0.23181      0.00000     0.76641    0.00178     0.76819
    H 16    0.43293      0.00000     0.56538    0.00170     0.56707
    H 17    0.21356      0.00000     0.78531    0.00114     0.78644
    H 18    0.21267      0.00000     0.78642    0.00091     0.78733
    H 19    0.21356      0.00000     0.78530    0.00114     0.78644
    H 20    0.21266      0.00000     0.78643    0.00091     0.78734
    H 21    0.24333      0.00000     0.75550    0.00117     0.75667
    H 22    0.21071      0.00000     0.78815    0.00113     0.78929
    H 23    0.21267      0.00000     0.78642    0.00091     0.78733
    H 24    0.21071      0.00000     0.78815    0.00113     0.78929
    H 25    0.24330      0.00000     0.75553    0.00117     0.75670
 ====================================================================
 * Total *  0.00000     23.99992    69.73178    0.26830    94.00000

 Normal termination of Gaussian 16 at Sat Feb  5 09:16:07 2022.
 Gaussian 16:  ES64L-G16RevC.01  3-Jul-2019

 --------------------------------------------------------------------
 # M062X/def2tzvp int=(grid=ultrafine) nmr=giao guess=read geom=check
 --------------------------------------------------------------------

 -------
 Ac2.xyz
 -------
 Structure from the checkpoint file:  "Ac2_conf-6.chk"
 Charge =  0 Multiplicity = 1

                         Standard orientation:
 ---------------------------------------------------------------------
 Center     Atomic      Atomic             Coordinates (Angstroms)
 Number     Number       Type             X           Y           Z
 ---------------------------------------------------------------------
      1          8           0       -3.926193    1.353408    0.000293
      2          6           0       -3.225741    0.202044   -0.000257
      3          6           0       -1.736325    0.466078   -0.000698
      4          7           0       -1.037744   -0.792591   -0.000292
      5          6           0        0.317859   -0.939094   -0.000315
      6          8           0        0.908406    0.282529   -0.000266
      7          6           0        2.372484    0.401280    0.000091
      8          6           0        2.582780    1.914654    0.000261
      9          6           0        2.945864   -0.228613    1.270492
     10          6           0        2.946500   -0.228406   -1.270128
     11          8           0        0.883121   -2.019341    0.000125
     12          8           0       -3.737785   -0.895424    0.000435
     13          1           0       -4.866354    1.106055    0.000882
     14          1           0       -1.492459    1.078589   -0.878069
     15          1           0       -1.491964    1.079360    0.875980
     16          1           0       -1.593559   -1.636071   -0.000262
     17          1           0        2.130536    2.365988   -0.887276
     18          1           0        3.651954    2.144199    0.000531
     19          1           0        2.130118    2.365849    0.887654
     20          1           0        4.022263   -0.037382    1.320080
     21          1           0        2.774803   -1.304592    1.280460
     22          1           0        2.479250    0.215149    2.155238
     23          1           0        4.022914   -0.037114   -1.319175
     24          1           0        2.480288    0.215464   -2.155032
     25          1           0        2.775495   -1.304389   -1.280336
 ---------------------------------------------------------------------

 SCF Done:  E(RM062X) =  -630.267814775     A.U. after    1 cycles

      1  O    Isotropic =   115.0018   Anisotropy =   222.0422

      2  C    Isotropic =    -5.8055   Anisotropy =   122.2507

      3  C    Isotropic =   139.0618   Anisotropy =    44.3113

      4  N    Isotropic =   165.4438   Anisotropy =   155.5735

      5  C    Isotropic =    17.0892   Anisotropy =    74.3174

      6  O    Isotropic =   111.4159   Anisotropy =    96.0063

      7  C    Isotropic =   100.9751   Anisotropy =    78.0125

      8  C    Isotropic =   152.2412   Anisotropy =    50.3963

      9  C    Isotropic =   158.8500   Anisotropy =    42.3419

     10  C    Isotropic =   158.8480   Anisotropy =    42.3467

     11  O    Isotropic =   -11.1974   Anisotropy =   432.1700

     12  O    Isotropic =  -151.5331   Anisotropy =   657.1102

     13  H    Isotropic =    25.4815   Anisotropy =    12.0708

     14  H    Isotropic =    27.9425   Anisotropy =     5.8672

     15  H    Isotropic =    27.9414   Anisotropy =     5.8645

     16  H    Isotropic =    27.1762   Anisotropy =    11.4815

     17  H    Isotropic =    30.5491   Anisotropy =     7.4952

     18  H    Isotropic =    30.9138   Anisotropy =     8.4602

     19  H    Isotropic =    30.5492   Anisotropy =     7.4950

     20  H    Isotropic =    31.0066   Anisotropy =     8.9358

     21  H    Isotropic =    29.0682   Anisotropy =     6.4497

     22  H    Isotropic =    30.8935   Anisotropy =     7.7232

     23  H    Isotropic =    31.0064   Anisotropy =     8.9360

     24  H    Isotropic =    30.8933   Anisotropy =     7.7233

     25  H    Isotropic =    29.0702   Anisotropy =     6.4502

 The electronic state is 1-A.
 Alpha  occ. eigenvalues --  -19.69707 -19.66362 -19.64442 -19.59395 -14.77494
 Alpha  occ. eigenvalues --  -10.70341 -10.69191 -10.61161 -10.60645 -10.53222
 Alpha  occ. eigenvalues --  -10.52418 -10.52416  -1.25967  -1.22626  -1.16556
 Alpha  occ. eigenvalues --   -1.13062  -1.04569  -0.91225  -0.85892  -0.78943
 Alpha  occ. eigenvalues --   -0.78600  -0.73550  -0.71645  -0.63853  -0.60719
 Alpha  occ. eigenvalues --   -0.59959  -0.58936  -0.58429  -0.55483  -0.55454
 Alpha  occ. eigenvalues --   -0.53401  -0.51698  -0.51563  -0.49244  -0.49089
 Alpha  occ. eigenvalues --   -0.48125  -0.45807  -0.45065  -0.43325  -0.42920
 Alpha  occ. eigenvalues --   -0.42283  -0.41702  -0.40201  -0.38665  -0.36698
 Alpha  occ. eigenvalues --   -0.34756  -0.32750
 Alpha virt. eigenvalues --    0.02678   0.04734   0.05816   0.08558   0.08779
 Alpha virt. eigenvalues --    0.09725   0.10952   0.11099   0.12024   0.13227
 Alpha virt. eigenvalues --    0.15147   0.15437   0.15974   0.16538   0.17262

 Mulliken charges:
               1
     1  O   -0.402765
     2  C    0.350114
     3  C   -0.174760
     4  N   -0.372513
     5  C    0.494274
     6  O   -0.302056
     7  C    0.094852
     8  C   -0.410281
     9  C   -0.446647
    10  C   -0.446635
    11  O   -0.419215
    12  O   -0.338621
    13  H    0.344678
    14  H    0.173017
    15  H    0.173052
    16  H    0.275173
    17  H    0.150335
    18  H    0.144553
    19  H    0.150334
    20  H    0.145801
    21  H    0.188545
    22  H    0.147217
    23  H    0.145808
    24  H    0.147221
    25  H    0.188520
 Sum of Mulliken charges =  -0.00000

 Dipole moment (field-independent basis, Debye):
    X=             -0.6833    Y=              3.7553    Z=             -0.0013  Tot=              3.8170
 Quadrupole moment (field-independent basis, Debye-Ang):
   XX=            -60.3802   YY=            -80.4198   ZZ=            -71.1826
   XY=             -2.3701   XZ=              0.0006   YZ=              0.0029

 Normal termination of Gaussian 16 at Sat Feb  5 09:16:55 2022.
