 Gaussian 16, Revision C.01,

 ----------------------------------------------------------------------
 # B3LYP/6-31G(d,p) empiricaldispersion=GD3BJ int=(grid=ultrafine) opt
 freq=noraman
 ----------------------------------------------------------------------

 -------
 Ac2.xyz
 -------
 Symbolic Z-matrix:
 Charge =  0 Multiplicity = 1

 SCF Done:  E(RB3LYP) =  -630.319620083     A.U. after   14 cycles
 SCF Done:  E(RB3LYP) =  -630.323859194     A.U. after   12 cycles
 SCF Done:  E(RB3LYP) =  -630.324448112     A.U. after   12 cycles
 SCF Done:  E(RB3LYP) =  -630.324640146     A.U. after   12 cycles
 SCF Done:  E(RB3LYP) =  -630.324806114     A.U. after   12 cycles
 SCF Done:  E(RB3LYP) =  -630.324952288     A.U. after   12 cycles
 SCF Done:  E(RB3LYP) =  -630.325079866     A.U. after   12 cycles
 SCF Done:  E(RB3LYP) =  -630.325247347     A.U. after   12 cycles
 SCF Done:  E(RB3LYP) =  -630.325342005     A.U. after   13 cycles
 SCF Done:  E(RB3LYP) =  -630.325375308     A.U. after   11 cycles
 SCF Done:  E(RB3LYP) =  -630.326720837     A.U. after   10 cycles
 SCF Done:  E(RB3LYP) =  -630.326733054     A.U. after   11 cycles
 SCF Done:  E(RB3LYP) =  -630.326734921     A.U. after   10 cycles
 SCF Done:  E(RB3LYP) =  -630.326735646     A.U. after    8 cycles
 SCF Done:  E(RB3LYP) =  -630.326736672     A.U. after    9 cycles
 SCF Done:  E(RB3LYP) =  -630.326736700     A.U. after    7 cycles
 SCF Done:  E(RB3LYP) =  -630.326736733     A.U. after    7 cycles
 Optimization completed.
    -- Stationary point found.
 Normal termination of Gaussian 16 at Sat Feb  5 09:13:44 2022.

 ----------------------------------------------------------------------
 #N Geom=AllCheck Guess=TCheck SCRF=Check GenChk RB3LYP/6-31G(d,p) Freq
 ----------------------------------------------------------------------

 Structure from the checkpoint file:  "Ac2_conf-5.chk"
 -------
 Ac2.xyz
 -------
 Charge =  0 Multiplicity = 1

 SCF Done:  E(RB3LYP) =  -630.326736733     A.U. after    1 cycles

                      1                      2                      3
                      A                      A                      A
 Frequencies --     18.3022                36.0961                43.1905
 Red. masses --      5.2853                 6.6442                 4.7369
 Frc consts  --      0.0010                 0.0051                 0.0052
 IR Inten    --      0.6518                 1.8419                 0.4520

                      4                      5                      6
                      A                      A                      A
 Frequencies --     75.4622               125.3913               161.7487
 Red. masses --      5.6887                 3.7794                 3.0906
 Frc consts  --      0.0191                 0.0350                 0.0476
 IR Inten    --      3.9985                 1.5373                 3.0006

                      7                      8                      9
                      A                      A                      A
 Frequencies --    209.9581               256.1090               273.4829
 Red. masses --      1.0789                 1.0817                 1.1047
 Frc consts  --      0.0280                 0.0418                 0.0487
 IR Inten    --      0.2931                 0.0827                 0.3592

                     10                     11                     12
                      A                      A                      A
 Frequencies --    282.5843               296.6845               305.4649
 Red. masses --      2.6825                 4.0969                 3.3263
 Frc consts  --      0.1262                 0.2125                 0.1829
 IR Inten    --      5.7370                 1.8212                 1.4376

                     13                     14                     15
                      A                      A                      A
 Frequencies --    339.8823               353.0491               427.3830
 Red. masses --      3.6426                 2.5154                 2.7678
 Frc consts  --      0.2479                 0.1847                 0.2979
 IR Inten    --     19.4768                 1.6464                 0.7833

                     16                     17                     18
                      A                      A                      A
 Frequencies --    458.9517               462.7408               492.0778
 Red. masses --      3.0221                 2.9793                 1.7031
 Frc consts  --      0.3751                 0.3759                 0.2430
 IR Inten    --      2.4269                11.6865                 9.8442

                     19                     20                     21
                      A                      A                      A
 Frequencies --    536.0071               568.1080               619.0673
 Red. masses --      1.5303                 3.0312                 4.1254
 Frc consts  --      0.2590                 0.5764                 0.9315
 IR Inten    --     75.4554                64.7942                37.2944

                     22                     23                     24
                      A                      A                      A
 Frequencies --    682.0227               745.0539               766.6869
 Red. masses --      1.4039                 4.1553                 6.4206
 Frc consts  --      0.3848                 1.3590                 2.2236
 IR Inten    --    108.4900                14.8637                16.9239

                     25                     26                     27
                      A                      A                      A
 Frequencies --    782.7115               848.9107               877.9826
 Red. masses --      5.2042                 4.4281                 3.3437
 Frc consts  --      1.8785                 1.8801                 1.5186
 IR Inten    --     14.7865                16.0787                27.7404

                     28                     29                     30
                      A                      A                      A
 Frequencies --    932.5393               933.8658               966.9944
 Red. masses --      1.6257                 1.6222                 3.4117
 Frc consts  --      0.8330                 0.8335                 1.8796
 IR Inten    --      0.1278                 0.4293                32.8262

                     31                     32                     33
                      A                      A                      A
 Frequencies --    975.2763              1058.1461              1060.8353
 Red. masses --      1.1987                 1.7241                 1.4059
 Frc consts  --      0.6718                 1.1374                 0.9322
 IR Inten    --      0.2668                 6.3282                 0.2258

                     34                     35                     36
                      A                      A                      A
 Frequencies --   1078.7970              1183.6841              1190.0021
 Red. masses --      2.4196                 2.3385                 2.8187
 Frc consts  --      1.6591                 1.9304                 2.3518
 IR Inten    --     19.8596               147.4247                11.5791

                     37                     38                     39
                      A                      A                      A
 Frequencies --   1214.6372              1264.8213              1279.7075
 Red. masses --      2.5276                 1.7352                 2.6663
 Frc consts  --      2.1971                 1.6356                 2.5727
 IR Inten    --    417.4341               113.7741                15.1795

                     40                     41                     42
                      A                      A                      A
 Frequencies --   1293.8800              1310.5198              1375.4415
 Red. masses --      2.3282                 1.5803                 1.5816
 Frc consts  --      2.2964                 1.5991                 1.7629
 IR Inten    --     37.7047               165.5090                47.3235

                     43                     44                     45
                      A                      A                      A
 Frequencies --   1383.8571              1410.3471              1413.5201
 Red. masses --      2.1955                 1.2968                 1.3041
 Frc consts  --      2.4772                 1.5198                 1.5352
 IR Inten    --     24.2197                17.3148                18.4668

                     46                     47                     48
                      A                      A                      A
 Frequencies --   1438.4373              1452.7585              1483.3217
 Red. masses --      1.2401                 1.1033                 1.0460
 Frc consts  --      1.5117                 1.3719                 1.3560
 IR Inten    --     19.9822                 6.6808                 0.6371

                     49                     50                     51
                      A                      A                      A
 Frequencies --   1504.3344              1504.6156              1509.5051
 Red. masses --      1.0485                 1.0512                 1.0693
 Frc consts  --      1.3980                 1.4021                 1.4355
 IR Inten    --      0.9135                 0.4489                17.4840

                     52                     53                     54
                      A                      A                      A
 Frequencies --   1520.1596              1537.9025              1545.6694
 Red. masses --      1.0531                 1.4841                 1.3029
 Frc consts  --      1.4338                 2.0681                 1.8340
 IR Inten    --      0.8305               208.7211               214.7714

                     55                     56                     57
                      A                      A                      A
 Frequencies --   1806.5222              1854.1749              3053.4184
 Red. masses --     10.0330                10.3392                 1.0353
 Frc consts  --     19.2915                20.9430                 5.6873
 IR Inten    --    229.3965               294.2337                 9.0628

                     58                     59                     60
                      A                      A                      A
 Frequencies --   3054.8433              3061.7206              3088.0311
 Red. masses --      1.0378                 1.0380                 1.0638
 Frc consts  --      5.7059                 5.7329                 5.9768
 IR Inten    --     23.8011                19.7981                19.8617

                     61                     62                     63
                      A                      A                      A
 Frequencies --   3121.8407              3123.9064              3134.3146
 Red. masses --      1.1027                 1.1024                 1.1033
 Frc consts  --      6.3317                 6.3387                 6.3861
 IR Inten    --      6.9202                16.8905                30.0158

                     64                     65                     66
                      A                      A                      A
 Frequencies --   3137.1404              3143.9941              3170.6149
 Red. masses --      1.1025                 1.1005                 1.1004
 Frc consts  --      6.3931                 6.4091                 6.5177
 IR Inten    --     43.0718                 0.9772                 0.7174

                     67                     68                     69
                      A                      A                      A
 Frequencies --   3173.5785              3642.9298              3755.2150
 Red. masses --      1.0998                 1.0768                 1.0642
 Frc consts  --      6.5264                 8.4191                 8.8416
 IR Inten    --     10.3460                30.6283                56.6672

 - Thermochemistry -
 -------------------
 Temperature   298.150 Kelvin.  Pressure   1.00000 Atm.
 Atom     1 has atomic number  8 and mass  15.99491

 Molecular mass:   175.08446 amu.
 Principal axes and moments of inertia in atomic units:
                           1         2         3
     Eigenvalues --   844.834054091.824814217.95924
           X            0.99995   0.00829   0.00522
           Y           -0.00848   0.99922   0.03868
           Z           -0.00489  -0.03872   0.99924
 This molecule is an asymmetric top.
 Rotational symmetry number  1.
 Warning -- assumption of classical behavior for rotation
           may cause significant error
 Rotational temperatures (Kelvin)      0.10252     0.02117     0.02053
 Rotational constants (GHZ):           2.13621     0.44106     0.42787
 Zero-point vibrational energy     545442.9 (Joules/Mol)
                                  130.36398 (Kcal/Mol)
 Warning -- explicit consideration of  21 degrees of freedom as
           vibrations may cause significant error
 Vibrational temperatures:     26.33    51.93    62.14   108.57   180.41
          (Kelvin)            232.72   302.08   368.48   393.48   406.58
                              426.86   439.50   489.01   507.96   614.91
                              660.33   665.78   707.99   771.19   817.38
                              890.70   981.28  1071.97  1103.09  1126.15
                             1221.39  1263.22  1341.72  1343.62  1391.29
                             1403.21  1522.44  1526.31  1552.15  1703.06
                             1712.15  1747.59  1819.80  1841.21  1861.60
                             1885.55  1978.95  1991.06  2029.17  2033.74
                             2069.59  2090.20  2134.17  2164.40  2164.81
                             2171.84  2187.17  2212.70  2223.87  2599.18
                             2667.74  4393.19  4395.24  4405.13  4442.99
                             4491.63  4494.60  4509.58  4513.65  4523.51
                             4561.81  4566.07  5241.36  5402.92

 Zero-point correction=                           0.207748 (Hartree/Particle)
 Thermal correction to Energy=                    0.221280
 Thermal correction to Enthalpy=                  0.222224
 Thermal correction to Gibbs Free Energy=         0.165958
 Sum of electronic and zero-point Energies=           -630.118989
 Sum of electronic and thermal Energies=              -630.105457
 Sum of electronic and thermal Enthalpies=            -630.104513
 Sum of electronic and thermal Free Energies=         -630.160779

                     E (Thermal)             CV                S
                      KCal/Mol        Cal/Mol-Kelvin    Cal/Mol-Kelvin
 Total                  138.855             48.983            118.423
 Electronic               0.000              0.000              0.000
 Translational            0.889              2.981             41.388
 Rotational               0.889              2.981             31.056
 Vibrational            137.078             43.021             45.979
 Vibration     1          0.593              1.986              6.810
 Vibration     2          0.594              1.982              5.463
 Vibration     3          0.595              1.980              5.107
 Vibration     4          0.599              1.965              4.006
 Vibration     5          0.610              1.928              3.016
 Vibration     6          0.622              1.889              2.529
 Vibration     7          0.642              1.826              2.044
 Vibration     8          0.666              1.752              1.688
 Vibration     9          0.676              1.722              1.574
 Vibration    10          0.682              1.706              1.518
 Vibration    11          0.690              1.680              1.436
 Vibration    12          0.696              1.663              1.387
 Vibration    13          0.720              1.596              1.213
 Vibration    14          0.729              1.569              1.153
 Vibration    15          0.789              1.411              0.867
 Vibration    16          0.817              1.341              0.769
 Vibration    17          0.820              1.333              0.758
 Vibration    18          0.848              1.268              0.678
 Vibration    19          0.891              1.170              0.574
 Vibration    20          0.924              1.100              0.508
 Vibration    21          0.979              0.992              0.418

 Optimization completed.
    -- Stationary point found.
 Normal termination of Gaussian 16 at Sat Feb  5 09:14:45 2022.

 ----------------------------------------------------------------------
 # M062X/def2tzvp int=(grid=ultrafine) pop=nbo7 polar prop=efg volume g
 uess=read geom=check
 ----------------------------------------------------------------------

 -------
 Ac2.xyz
 -------
 Structure from the checkpoint file:  "Ac2_conf-5.chk"
 Charge =  0 Multiplicity = 1

 SCF Done:  E(RM062X) =  -630.267362680     A.U. after   12 cycles

  Exact polarizability:     124.845       4.079      93.720      -1.588       0.008      90.838
 Approx polarizability:     128.122       5.274     111.248      -2.565      -2.271     119.008

 Summary of Natural Population Analysis:

                                     Natural Population
             Natural    ---------------------------------------------
  Atom No    Charge        Core      Valence    Rydberg      Total
 --------------------------------------------------------------------
    O  1   -0.68612      2.00000     6.66404    0.02209     8.68612
    C  2    0.77828      1.99999     3.18441    0.03731     5.22172
    C  3   -0.33592      1.99999     4.31859    0.01734     6.33592
    N  4   -0.62848      2.00000     5.60533    0.02316     7.62848
    C  5    0.90416      1.99999     3.05836    0.03748     5.09584
    O  6   -0.53778      2.00000     6.51654    0.02125     8.53778
    C  7    0.27616      1.99999     3.71031    0.01354     5.72384
    C  8   -0.64302      1.99999     4.63230    0.01073     6.64302
    C  9   -0.61357      1.99999     4.60285    0.01073     6.61357
    C 10   -0.64282      1.99999     4.63207    0.01075     6.64282
    O 11   -0.66115      2.00000     6.63607    0.02508     8.66115
    O 12   -0.58885      2.00000     6.56223    0.02663     8.58885
    H 13    0.49891      0.00000     0.49753    0.00356     0.50109
    H 14    0.26442      0.00000     0.73406    0.00152     0.73558
    H 15    0.23452      0.00000     0.76429    0.00119     0.76548
    H 16    0.40554      0.00000     0.59290    0.00156     0.59446
    H 17    0.21327      0.00000     0.78581    0.00091     0.78673
    H 18    0.21268      0.00000     0.78620    0.00112     0.78732
    H 19    0.24103      0.00000     0.75784    0.00114     0.75897
    H 20    0.21470      0.00000     0.78418    0.00112     0.78530
    H 21    0.21216      0.00000     0.78693    0.00092     0.78784
    H 22    0.21531      0.00000     0.78358    0.00111     0.78469
    H 23    0.24111      0.00000     0.75776    0.00113     0.75889
    H 24    0.21239      0.00000     0.78646    0.00115     0.78761
    H 25    0.21306      0.00000     0.78602    0.00092     0.78694
 ====================================================================
 * Total *  0.00000     23.99992    69.72665    0.27343    94.00000

 Normal termination of Gaussian 16 at Sat Feb  5 09:17:44 2022.
 Gaussian 16:  ES64L-G16RevC.01  3-Jul-2019

 --------------------------------------------------------------------
 # M062X/def2tzvp int=(grid=ultrafine) nmr=giao guess=read geom=check
 --------------------------------------------------------------------

 -------
 Ac2.xyz
 -------
 Structure from the checkpoint file:  "Ac2_conf-5.chk"
 Charge =  0 Multiplicity = 1

                         Standard orientation:
 ---------------------------------------------------------------------
 Center     Atomic      Atomic             Coordinates (Angstroms)
 Number     Number       Type             X           Y           Z
 ---------------------------------------------------------------------
      1          8           0       -2.376417    1.398780   -0.185137
      2          6           0       -3.067078    0.254421    0.017619
      3          6           0       -2.295169   -0.990597   -0.405131
      4          7           0       -0.968838   -0.774990   -0.925321
      5          6           0        0.064274   -0.574331   -0.039122
      6          8           0        1.135513   -0.096012   -0.705456
      7          6           0        2.391775    0.183467    0.006880
      8          6           0        2.948054   -1.108154    0.607933
      9          6           0        3.298171    0.699550   -1.109342
     10          6           0        2.159040    1.264353    1.063839
     11          8           0       -0.005285   -0.829664    1.150945
     12          8           0       -4.185141    0.223334    0.476952
     13          1           0       -2.949482    2.116206    0.134193
     14          1           0       -2.217946   -1.625682    0.479951
     15          1           0       -2.909986   -1.521837   -1.137365
     16          1           0       -0.873595   -0.307378   -1.815051
     17          1           0        3.937279   -0.915910    1.034614
     18          1           0        3.053710   -1.871064   -0.169140
     19          1           0        2.291880   -1.486818    1.391080
     20          1           0        2.872438    1.596987   -1.566548
     21          1           0        4.283325    0.948700   -0.705410
     22          1           0        3.422315   -0.059974   -1.886036
     23          1           0        1.500422    0.902227    1.852684
     24          1           0        1.710770    2.150282    0.604221
     25          1           0        3.116981    1.555430    1.505563
 ---------------------------------------------------------------------

 SCF Done:  E(RM062X) =  -630.267362680     A.U. after    1 cycles

      1  O    Isotropic =   103.0557   Anisotropy =   212.4538

      2  C    Isotropic =    -6.3726   Anisotropy =   120.1584

      3  C    Isotropic =   139.3582   Anisotropy =    41.9756

      4  N    Isotropic =   158.0333   Anisotropy =   111.1255

      5  C    Isotropic =    12.3035   Anisotropy =    79.9847

      6  O    Isotropic =   110.0321   Anisotropy =   107.0030

      7  C    Isotropic =    99.9908   Anisotropy =    79.1582

      8  C    Isotropic =   158.9301   Anisotropy =    42.4195

      9  C    Isotropic =   152.4231   Anisotropy =    50.1340

     10  C    Isotropic =   158.6531   Anisotropy =    42.1761

     11  O    Isotropic =   -21.7831   Anisotropy =   511.1798

     12  O    Isotropic =  -149.7796   Anisotropy =   632.7470

     13  H    Isotropic =    25.6652   Anisotropy =    10.6724

     14  H    Isotropic =    27.3985   Anisotropy =     5.0252

     15  H    Isotropic =    28.6160   Anisotropy =     7.8634

     16  H    Isotropic =    27.5662   Anisotropy =     5.6840

     17  H    Isotropic =    30.9899   Anisotropy =     8.9570

     18  H    Isotropic =    30.8434   Anisotropy =     7.9633

     19  H    Isotropic =    29.1662   Anisotropy =     6.2753

     20  H    Isotropic =    30.5536   Anisotropy =     7.7058

     21  H    Isotropic =    30.9428   Anisotropy =     8.5112

     22  H    Isotropic =    30.5539   Anisotropy =     7.8834

     23  H    Isotropic =    29.1433   Anisotropy =     5.9763

     24  H    Isotropic =    30.8390   Anisotropy =     7.5215

     25  H    Isotropic =    30.9905   Anisotropy =     8.9112

 The electronic state is 1-A.
 Alpha  occ. eigenvalues --  -19.68700 -19.66600 -19.62793 -19.60445 -14.78024
 Alpha  occ. eigenvalues --  -10.69656 -10.68831 -10.61333 -10.59892 -10.53262
 Alpha  occ. eigenvalues --  -10.52601 -10.52592  -1.24663  -1.23137  -1.15034
 Alpha  occ. eigenvalues --   -1.13866  -1.04814  -0.91630  -0.84526  -0.79040
 Alpha  occ. eigenvalues --   -0.78777  -0.73153  -0.70177  -0.66309  -0.60171
 Alpha  occ. eigenvalues --   -0.59650  -0.59285  -0.56369  -0.55693  -0.54975
 Alpha  occ. eigenvalues --   -0.52293  -0.52245  -0.50909  -0.48939  -0.48640
 Alpha  occ. eigenvalues --   -0.47151  -0.45830  -0.45446  -0.43475  -0.43024
 Alpha  occ. eigenvalues --   -0.41991  -0.40617  -0.40525  -0.38748  -0.36955
 Alpha  occ. eigenvalues --   -0.35634  -0.32995
 Alpha virt. eigenvalues --    0.03761   0.04708   0.06701   0.07384   0.08643
 Alpha virt. eigenvalues --    0.10400   0.10459   0.11882   0.11971   0.13447
 Alpha virt. eigenvalues --    0.13840   0.14847   0.16054   0.16340   0.17326

 Mulliken charges:
               1
     1  O   -0.404170
     2  C    0.350065
     3  C   -0.224766
     4  N   -0.378316
     5  C    0.536224
     6  O   -0.305779
     7  C    0.106343
     8  C   -0.450278
     9  C   -0.406899
    10  C   -0.451416
    11  O   -0.425804
    12  O   -0.327038
    13  H    0.339861
    14  H    0.197673
    15  H    0.177597
    16  H    0.252053
    17  H    0.147453
    18  H    0.151147
    19  H    0.185910
    20  H    0.151598
    21  H    0.142669
    22  H    0.152732
    23  H    0.186375
    24  H    0.149516
    25  H    0.147249
 Sum of Mulliken charges =  -0.00000

 Dipole moment (field-independent basis, Debye):
    X=              1.9578    Y=              1.3901    Z=             -2.4407  Tot=              3.4238
 Quadrupole moment (field-independent basis, Debye-Ang):
   XX=            -76.2757   YY=            -67.7532   ZZ=            -72.8918
   XY=             -1.2089   XZ=              5.8942   YZ=              2.5068

 Normal termination of Gaussian 16 at Sat Feb  5 09:18:51 2022.
