 Gaussian 16, Revision C.01,

 ----------------------------------------------------------------------
 # B3LYP/6-31G(d,p) empiricaldispersion=GD3BJ int=(grid=ultrafine) opt
 freq=noraman
 ----------------------------------------------------------------------

 -------
 Ac2.xyz
 -------
 Symbolic Z-matrix:
 Charge =  0 Multiplicity = 1

 SCF Done:  E(RB3LYP) =  -630.320508935     A.U. after   14 cycles
 SCF Done:  E(RB3LYP) =  -630.325449980     A.U. after   12 cycles
 SCF Done:  E(RB3LYP) =  -630.326698468     A.U. after   12 cycles
 SCF Done:  E(RB3LYP) =  -630.327106356     A.U. after   12 cycles
 SCF Done:  E(RB3LYP) =  -630.326736567     A.U. after   13 cycles
 SCF Done:  E(RB3LYP) =  -630.327468819     A.U. after   12 cycles
 SCF Done:  E(RB3LYP) =  -630.327622886     A.U. after   11 cycles
 SCF Done:  E(RB3LYP) =  -630.327645791     A.U. after   10 cycles
 SCF Done:  E(RB3LYP) =  -630.327658130     A.U. after   10 cycles
 SCF Done:  E(RB3LYP) =  -630.327660782     A.U. after    8 cycles
 SCF Done:  E(RB3LYP) =  -630.327664186     A.U. after    9 cycles
 SCF Done:  E(RB3LYP) =  -630.327664463     A.U. after    7 cycles
 SCF Done:  E(RB3LYP) =  -630.327664541     A.U. after    7 cycles
 SCF Done:  E(RB3LYP) =  -630.327664557     A.U. after    7 cycles
 Optimization completed.
    -- Stationary point found.
 Normal termination of Gaussian 16 at Sat Feb  5 09:04:39 2022.

 ----------------------------------------------------------------------
 #N Geom=AllCheck Guess=TCheck SCRF=Check GenChk RB3LYP/6-31G(d,p) Freq
 ----------------------------------------------------------------------

 Structure from the checkpoint file:  "Ac2_conf-4.chk"
 -------
 Ac2.xyz
 -------
 Charge =  0 Multiplicity = 1

 SCF Done:  E(RB3LYP) =  -630.327664557     A.U. after    1 cycles

                      1                      2                      3
                      A                      A                      A
 Frequencies --     35.3588                45.7284                55.4657
 Red. masses --      5.3596                 3.5512                 7.8557
 Frc consts  --      0.0039                 0.0044                 0.0142
 IR Inten    --      0.0778                 1.2577                 2.6222

                      4                      5                      6
                      A                      A                      A
 Frequencies --    104.0449               129.8569               169.9614
 Red. masses --      8.3610                 3.5634                 3.1477
 Frc consts  --      0.0533                 0.0354                 0.0536
 IR Inten    --      0.2218                 1.2979                 3.2262

                      7                      8                      9
                      A                      A                      A
 Frequencies --    213.0079               248.6064               259.6772
 Red. masses --      1.0937                 1.9591                 1.2389
 Frc consts  --      0.0292                 0.0713                 0.0492
 IR Inten    --      0.0713                 1.0099                 0.1413

                     10                     11                     12
                      A                      A                      A
 Frequencies --    275.5065               291.6810               324.9062
 Red. masses --      1.0811                 5.8386                 3.2066
 Frc consts  --      0.0483                 0.2927                 0.1994
 IR Inten    --      0.0744                 3.2412                 6.0443

                     13                     14                     15
                      A                      A                      A
 Frequencies --    353.0594               379.3781               431.9009
 Red. masses --      2.4898                 2.7292                 2.9075
 Frc consts  --      0.1829                 0.2314                 0.3196
 IR Inten    --      1.9881                 7.9697                 3.2494

                     16                     17                     18
                      A                      A                      A
 Frequencies --    440.9326               463.8403               494.6889
 Red. masses --      3.6088                 2.9055                 1.6904
 Frc consts  --      0.4134                 0.3683                 0.2437
 IR Inten    --      8.6949                 7.2694                21.2868

                     19                     20                     21
                      A                      A                      A
 Frequencies --    516.1042               602.7265               636.8839
 Red. masses --      1.8284                 2.9727                 2.3165
 Frc consts  --      0.2869                 0.6363                 0.5536
 IR Inten    --     80.7217                86.6772                33.0842

                     22                     23                     24
                      A                      A                      A
 Frequencies --    671.0304               690.6378               777.4563
 Red. masses --      1.6775                 3.8051                 8.9102
 Frc consts  --      0.4450                 1.0694                 3.1732
 IR Inten    --     68.4993                24.1406                27.8222

                     25                     26                     27
                      A                      A                      A
 Frequencies --    792.2250               858.9069               870.3828
 Red. masses --      3.9534                 3.8857                 3.8752
 Frc consts  --      1.4619                 1.6889                 1.7297
 IR Inten    --     14.4413                10.0112                14.0988

                     28                     29                     30
                      A                      A                      A
 Frequencies --    933.8045               934.4111               966.2101
 Red. masses --      1.6204                 1.6214                 2.9129
 Frc consts  --      0.8325                 0.8341                 1.6022
 IR Inten    --      0.0887                 0.1786                 0.6111

                     31                     32                     33
                      A                      A                      A
 Frequencies --    976.9275              1055.4556              1061.4781
 Red. masses --      1.2001                 2.4169                 1.4212
 Frc consts  --      0.6749                 1.5863                 0.9435
 IR Inten    --      0.2184                65.2184                 1.8754

                     34                     35                     36
                      A                      A                      A
 Frequencies --   1070.9506              1158.2029              1173.7551
 Red. masses --      1.7718                 2.9065                 2.2765
 Frc consts  --      1.1973                 2.2971                 1.8479
 IR Inten    --     26.1377               289.3767               118.4797

                     37                     38                     39
                      A                      A                      A
 Frequencies --   1217.4520              1279.5086              1281.2036
 Red. masses --      2.2062                 1.7303                 2.3266
 Frc consts  --      1.9267                 1.6690                 2.2502
 IR Inten    --    194.6654                45.4442                14.9147

                     40                     41                     42
                      A                      A                      A
 Frequencies --   1294.7430              1320.1426              1380.2566
 Red. masses --      2.1910                 1.5645                 3.0671
 Frc consts  --      2.1640                 1.6064                 3.4427
 IR Inten    --     17.0756                39.1400               245.0529

                     43                     44                     45
                      A                      A                      A
 Frequencies --   1411.0756              1414.2186              1425.4035
 Red. masses --      1.2998                 1.3112                 1.9054
 Frc consts  --      1.5249                 1.5451                 2.2809
 IR Inten    --     16.8473                18.1989                56.7132

                     46                     47                     48
                      A                      A                      A
 Frequencies --   1438.7768              1471.4999              1476.1554
 Red. masses --      1.2389                 1.2306                 1.4995
 Frc consts  --      1.5110                 1.5700                 1.9251
 IR Inten    --     23.3930                16.4949                92.6246

                     49                     50                     51
                      A                      A                      A
 Frequencies --   1483.0113              1504.2142              1504.7445
 Red. masses --      1.0460                 1.0481                 1.0529
 Frc consts  --      1.3554                 1.3973                 1.4047
 IR Inten    --      0.9555                 0.4014                 0.6948

                     52                     53                     54
                      A                      A                      A
 Frequencies --   1508.9126              1520.2069              1542.7891
 Red. masses --      1.0679                 1.0528                 1.0577
 Frc consts  --      1.4326                 1.4335                 1.4832
 IR Inten    --     11.1533                 1.3056                16.4850

                     55                     56                     57
                      A                      A                      A
 Frequencies --   1824.4213              1858.7415              3052.2194
 Red. masses --      9.1491                10.2237                 1.0354
 Frc consts  --     17.9423                20.8112                 5.6831
 IR Inten    --    303.7404               306.3221                11.9391

                     58                     59                     60
                      A                      A                      A
 Frequencies --   3055.3237              3062.4295              3083.3903
 Red. masses --      1.0375                 1.0382                 1.0625
 Frc consts  --      5.7064                 5.7368                 5.9517
 IR Inten    --     20.3507                18.2286                17.0791

                     61                     62                     63
                      A                      A                      A
 Frequencies --   3121.2180              3128.6424              3132.3661
 Red. masses --      1.1025                 1.1028                 1.1030
 Frc consts  --      6.3280                 6.3602                 6.3762
 IR Inten    --     11.7468                 2.5132                30.9129

                     64                     65                     66
                      A                      A                      A
 Frequencies --   3132.9593              3137.2700              3170.2877
 Red. masses --      1.1020                 1.1024                 1.1007
 Frc consts  --      6.3732                 6.3929                 6.5179
 IR Inten    --      3.1840                48.8242                 1.7068

                     67                     68                     69
                      A                      A                      A
 Frequencies --   3173.9623              3647.8858              3753.7449
 Red. masses --      1.0999                 1.0768                 1.0643
 Frc consts  --      6.5282                 8.4424                 8.8354
 IR Inten    --      7.9850                41.8355                51.0557

 - Thermochemistry -
 -------------------
 Temperature   298.150 Kelvin.  Pressure   1.00000 Atm.
 Atom     1 has atomic number  8 and mass  15.99491

 Molecular mass:   175.08446 amu.
 Principal axes and moments of inertia in atomic units:
                           1         2         3
     Eigenvalues --  1292.413392760.477883262.12106
           X            0.99949   0.03137  -0.00609
           Y           -0.03143   0.99947  -0.00862
           Z            0.00582   0.00881   0.99994
 This molecule is an asymmetric top.
 Rotational symmetry number  1.
 Warning -- assumption of classical behavior for rotation
           may cause significant error
 Rotational temperatures (Kelvin)      0.06702     0.03138     0.02655
 Rotational constants (GHZ):           1.39641     0.65378     0.55324
 Zero-point vibrational energy     545941.7 (Joules/Mol)
                                  130.48320 (Kcal/Mol)
 Warning -- explicit consideration of  20 degrees of freedom as
           vibrations may cause significant error
 Vibrational temperatures:     50.87    65.79    79.80   149.70   186.84
          (Kelvin)            244.54   306.47   357.69   373.62   396.39
                              419.66   467.47   507.97   545.84   621.41
                              634.40   667.36   711.75   742.56   867.19
                              916.33   965.46   993.67  1118.59  1139.84
                             1235.78  1252.29  1343.54  1344.41  1390.16
                             1405.58  1518.57  1527.23  1540.86  1666.40
                             1688.77  1751.64  1840.93  1843.37  1862.85
                             1899.39  1985.88  2030.22  2034.75  2050.84
                             2070.08  2117.16  2123.86  2133.72  2164.23
                             2164.99  2170.99  2187.24  2219.73  2624.94
                             2674.31  4391.46  4395.93  4406.15  4436.31
                             4490.74  4501.42  4506.78  4507.63  4513.83
                             4561.34  4566.62  5248.49  5400.80

 Zero-point correction=                           0.207938 (Hartree/Particle)
 Thermal correction to Energy=                    0.221296
 Thermal correction to Enthalpy=                  0.222240
 Thermal correction to Gibbs Free Energy=         0.167553
 Sum of electronic and zero-point Energies=           -630.119726
 Sum of electronic and thermal Energies=              -630.106369
 Sum of electronic and thermal Enthalpies=            -630.105424
 Sum of electronic and thermal Free Energies=         -630.160111

                     E (Thermal)             CV                S
                      KCal/Mol        Cal/Mol-Kelvin    Cal/Mol-Kelvin
 Total                  138.865             48.924            115.098
 Electronic               0.000              0.000              0.000
 Translational            0.889              2.981             41.388
 Rotational               0.889              2.981             30.832
 Vibrational            137.088             42.963             42.879
 Vibration     1          0.594              1.982              5.503
 Vibration     2          0.595              1.979              4.994
 Vibration     3          0.596              1.975              4.612
 Vibration     4          0.605              1.946              3.377
 Vibration     5          0.612              1.923              2.948
 Vibration     6          0.625              1.879              2.436
 Vibration     7          0.644              1.821              2.018
 Vibration     8          0.662              1.765              1.740
 Vibration     9          0.668              1.746              1.664
 Vibration    10          0.677              1.719              1.561
 Vibration    11          0.687              1.689              1.464
 Vibration    12          0.709              1.626              1.285
 Vibration    13          0.729              1.569              1.153
 Vibration    14          0.749              1.514              1.042
 Vibration    15          0.793              1.401              0.852
 Vibration    16          0.801              1.381              0.824
 Vibration    17          0.821              1.330              0.755
 Vibration    18          0.850              1.262              0.672
 Vibration    19          0.871              1.214              0.619
 Vibration    20          0.961              1.026              0.445

 Optimization completed.
    -- Stationary point found.
 Normal termination of Gaussian 16 at Sat Feb  5 09:05:46 2022.

 ----------------------------------------------------------------------
 # M062X/def2tzvp int=(grid=ultrafine) pop=nbo7 polar prop=efg volume g
 uess=read geom=check
 ----------------------------------------------------------------------

 -------
 Ac2.xyz
 -------
 Structure from the checkpoint file:  "Ac2_conf-4.chk"
 Charge =  0 Multiplicity = 1

 SCF Done:  E(RM062X) =  -630.267557701     A.U. after   12 cycles

  Exact polarizability:     111.732      -1.549     100.740      -5.935       1.311      92.618
 Approx polarizability:     121.278      -3.735     118.973     -10.409       5.098     119.516

 Summary of Natural Population Analysis:

                                     Natural Population
             Natural    ---------------------------------------------
  Atom No    Charge        Core      Valence    Rydberg      Total
 --------------------------------------------------------------------
    O  1   -0.68613      2.00000     6.66416    0.02198     8.68613
    C  2    0.78210      1.99999     3.18033    0.03758     5.21790
    C  3   -0.32821      1.99999     4.31164    0.01658     6.32821
    N  4   -0.63098      2.00000     5.60735    0.02363     7.63098
    C  5    0.91119      1.99999     3.05170    0.03712     5.08881
    O  6   -0.55601      2.00000     6.53380    0.02222     8.55601
    C  7    0.28005      1.99999     3.70582    0.01414     5.71995
    C  8   -0.61417      1.99999     4.60346    0.01072     6.61417
    C  9   -0.64639      1.99999     4.63556    0.01084     6.64639
    C 10   -0.64223      1.99999     4.63148    0.01076     6.64223
    O 11   -0.64388      2.00000     6.61890    0.02499     8.64388
    O 12   -0.58909      2.00000     6.56216    0.02693     8.58909
    H 13    0.49671      0.00000     0.49989    0.00339     0.50329
    H 14    0.23544      0.00000     0.76332    0.00124     0.76456
    H 15    0.24428      0.00000     0.75414    0.00158     0.75572
    H 16    0.40693      0.00000     0.59151    0.00155     0.59307
    H 17    0.21376      0.00000     0.78509    0.00115     0.78624
    H 18    0.21289      0.00000     0.78620    0.00091     0.78711
    H 19    0.21305      0.00000     0.78575    0.00120     0.78695
    H 20    0.21170      0.00000     0.78739    0.00092     0.78830
    H 21    0.24023      0.00000     0.75860    0.00117     0.75977
    H 22    0.22285      0.00000     0.77600    0.00115     0.77715
    H 23    0.21194      0.00000     0.78714    0.00092     0.78806
    H 24    0.21121      0.00000     0.78766    0.00113     0.78879
    H 25    0.24277      0.00000     0.75607    0.00116     0.75723
 ====================================================================
 * Total *  0.00000     23.99992    69.72512    0.27495    94.00000

 Normal termination of Gaussian 16 at Sat Feb  5 09:09:04 2022.
 Gaussian 16:  ES64L-G16RevC.01  3-Jul-2019

 --------------------------------------------------------------------
 # M062X/def2tzvp int=(grid=ultrafine) nmr=giao guess=read geom=check
 --------------------------------------------------------------------

 -------
 Ac2.xyz
 -------
 Structure from the checkpoint file:  "Ac2_conf-4.chk"
 Charge =  0 Multiplicity = 1

                         Standard orientation:
 ---------------------------------------------------------------------
 Center     Atomic      Atomic             Coordinates (Angstroms)
 Number     Number       Type             X           Y           Z
 ---------------------------------------------------------------------
      1          8           0        3.131337   -1.353858   -0.287477
      2          6           0        2.325725   -0.381985    0.198312
      3          6           0        1.990664    0.631611   -0.890909
      4          7           0        1.050121    1.638141   -0.467004
      5          6           0       -0.225473    1.310187   -0.053393
      6          8           0       -0.556329    0.086461   -0.517480
      7          6           0       -1.791057   -0.573007   -0.067486
      8          6           0       -1.693251   -1.943572   -0.735170
      9          6           0       -1.772796   -0.706638    1.456012
     10          6           0       -3.007848    0.200365   -0.575557
     11          8           0       -0.928414    2.060640    0.596280
     12          8           0        1.941360   -0.344632    1.343172
     13          1           0        3.308609   -1.958929    0.452395
     14          1           0        2.918764    1.112633   -1.214367
     15          1           0        1.600463    0.083092   -1.751188
     16          1           0        1.413560    2.433606    0.037520
     17          1           0       -1.640615   -1.839090   -1.822483
     18          1           0       -2.571688   -2.545113   -0.485794
     19          1           0       -0.799949   -2.473604   -0.392990
     20          1           0       -2.607829   -1.336746    1.777183
     21          1           0       -1.860935    0.268688    1.933951
     22          1           0       -0.837390   -1.171780    1.779044
     23          1           0       -3.920920   -0.349642   -0.327096
     24          1           0       -2.959672    0.309825   -1.663170
     25          1           0       -3.052660    1.189423   -0.120799
 ---------------------------------------------------------------------

 SCF Done:  E(RM062X) =  -630.267557701     A.U. after    1 cycles

      1  O    Isotropic =   114.7135   Anisotropy =   225.0438

      2  C    Isotropic =    -7.2824   Anisotropy =   121.2184

      3  C    Isotropic =   138.4756   Anisotropy =    45.1501

      4  N    Isotropic =   161.4208   Anisotropy =   125.6540

      5  C    Isotropic =    13.3415   Anisotropy =    82.6525

      6  O    Isotropic =   111.1636   Anisotropy =   122.7690

      7  C    Isotropic =    99.7260   Anisotropy =    79.9023

      8  C    Isotropic =   152.4282   Anisotropy =    49.8441

      9  C    Isotropic =   159.5838   Anisotropy =    40.6443

     10  C    Isotropic =   158.4913   Anisotropy =    42.7613

     11  O    Isotropic =   -32.0914   Anisotropy =   461.8846

     12  O    Isotropic =  -157.4979   Anisotropy =   662.3368

     13  H    Isotropic =    25.6347   Anisotropy =    11.6465

     14  H    Isotropic =    28.6349   Anisotropy =     7.8718

     15  H    Isotropic =    27.8051   Anisotropy =     4.5438

     16  H    Isotropic =    28.0101   Anisotropy =    10.1398

     17  H    Isotropic =    30.6165   Anisotropy =     7.5651

     18  H    Isotropic =    30.9792   Anisotropy =     8.6509

     19  H    Isotropic =    30.7021   Anisotropy =     6.7712

     20  H    Isotropic =    31.1267   Anisotropy =     9.0005

     21  H    Isotropic =    29.3169   Anisotropy =     6.1108

     22  H    Isotropic =    30.8001   Anisotropy =     7.2513

     23  H    Isotropic =    31.0238   Anisotropy =     9.0998

     24  H    Isotropic =    30.8580   Anisotropy =     8.0328

     25  H    Isotropic =    29.0980   Anisotropy =     6.6652

 The electronic state is 1-A.
 Alpha  occ. eigenvalues --  -19.68960 -19.66256 -19.63549 -19.59693 -14.77666
 Alpha  occ. eigenvalues --  -10.69207 -10.69169 -10.60943 -10.60398 -10.53026
 Alpha  occ. eigenvalues --  -10.52165 -10.51933  -1.25049  -1.22737  -1.15590
 Alpha  occ. eigenvalues --   -1.13282  -1.04527  -0.90965  -0.85119  -0.78704
 Alpha  occ. eigenvalues --   -0.78263  -0.73615  -0.70998  -0.62631  -0.60354
 Alpha  occ. eigenvalues --   -0.59980  -0.59429  -0.57316  -0.55463  -0.54643
 Alpha  occ. eigenvalues --   -0.53607  -0.51361  -0.50954  -0.49222  -0.48180
 Alpha  occ. eigenvalues --   -0.47189  -0.45612  -0.44987  -0.43042  -0.42683
 Alpha  occ. eigenvalues --   -0.41520  -0.41338  -0.39983  -0.38155  -0.36466
 Alpha  occ. eigenvalues --   -0.34945  -0.33296
 Alpha virt. eigenvalues --    0.03323   0.04614   0.06347   0.07330   0.08489
 Alpha virt. eigenvalues --    0.10013   0.11088   0.12036   0.12716   0.13437
 Alpha virt. eigenvalues --    0.13524   0.15470   0.16410   0.17489   0.17898

 Mulliken charges:
               1
     1  O   -0.406151
     2  C    0.330526
     3  C   -0.201909
     4  N   -0.369206
     5  C    0.496752
     6  O   -0.305995
     7  C    0.086457
     8  C   -0.409710
     9  C   -0.444056
    10  C   -0.436120
    11  O   -0.401654
    12  O   -0.320738
    13  H    0.340803
    14  H    0.183373
    15  H    0.186342
    16  H    0.254577
    17  H    0.152170
    18  H    0.145577
    19  H    0.148146
    20  H    0.145714
    21  H    0.184360
    22  H    0.163112
    23  H    0.144232
    24  H    0.147215
    25  H    0.186183
 Sum of Mulliken charges =  -0.00000

 Dipole moment (field-independent basis, Debye):
    X=              1.9359    Y=             -2.2533    Z=             -1.6584  Tot=              3.4022
 Quadrupole moment (field-independent basis, Debye-Ang):
   XX=            -62.6216   YY=            -71.4320   ZZ=            -75.8317
   XY=              5.0709   XZ=             -0.0880   YZ=             -3.5733

 Normal termination of Gaussian 16 at Sat Feb  5 09:10:18 2022.
