 Gaussian 16, Revision C.01,

 ----------------------------------------------------------------------
 # B3LYP/6-31G(d,p) empiricaldispersion=GD3BJ int=(grid=ultrafine) opt
 freq=noraman
 ----------------------------------------------------------------------

 -------
 Ac3.xyz
 -------
 Symbolic Z-matrix:
 Charge =  0 Multiplicity = 1

 SCF Done:  E(RB3LYP) =  -1094.94228541     A.U. after   14 cycles
 SCF Done:  E(RB3LYP) =  -1094.94228880     A.U. after    8 cycles
 SCF Done:  E(RB3LYP) =  -1094.94228986     A.U. after    8 cycles
 SCF Done:  E(RB3LYP) =  -1094.94229317     A.U. after   10 cycles
 SCF Done:  E(RB3LYP) =  -1094.94229767     A.U. after   10 cycles
 SCF Done:  E(RB3LYP) =  -1094.94230489     A.U. after   10 cycles
 SCF Done:  E(RB3LYP) =  -1094.94227702     A.U. after   12 cycles
 SCF Done:  E(RB3LYP) =  -1094.94232258     A.U. after   12 cycles
 SCF Done:  E(RB3LYP) =  -1094.94237200     A.U. after   15 cycles
 SCF Done:  E(RB3LYP) =  -1094.94238871     A.U. after   14 cycles
 SCF Done:  E(RB3LYP) =  -1094.94262448     A.U. after   10 cycles
 SCF Done:  E(RB3LYP) =  -1094.94205069     A.U. after   12 cycles
 SCF Done:  E(RB3LYP) =  -1094.94263862     A.U. after   11 cycles
 SCF Done:  E(RB3LYP) =  -1094.94264583     A.U. after   10 cycles
 SCF Done:  E(RB3LYP) =  -1094.94264802     A.U. after    8 cycles
 SCF Done:  E(RB3LYP) =  -1094.94264873     A.U. after    8 cycles
 SCF Done:  E(RB3LYP) =  -1094.94264875     A.U. after    7 cycles
 Optimization completed.
    -- Stationary point found.
 Normal termination of Gaussian 16 at Thu Feb 10 10:35:30 2022.

 ----------------------------------------------------------------------
 #N Geom=AllCheck Guess=TCheck SCRF=Check GenChk RB3LYP/6-31G(d,p) Freq
 ----------------------------------------------------------------------

 Structure from the checkpoint file:  "Ac3_conf-1-retry-1.chk"
 -------
 Ac3.xyz
 -------
 Charge =  0 Multiplicity = 1

 SCF Done:  E(RB3LYP) =  -1094.94264875     A.U. after    1 cycles

                      1                      2                      3
                      A                      A                      A
 Frequencies --     14.9864                16.9592                55.8533
 Red. masses --     17.4594                18.6505                12.2013
 Frc consts  --      0.0023                 0.0032                 0.0224
 IR Inten    --      0.0166                 0.0308                 1.4699

                      4                      5                      6
                      A                      A                      A
 Frequencies --     82.1040               113.0757               121.9589
 Red. masses --     11.3988                15.3144                10.6537
 Frc consts  --      0.0453                 0.1154                 0.0934
 IR Inten    --      0.7344                 0.9548                 0.6856

                      7                      8                      9
                      A                      A                      A
 Frequencies --    151.8462               172.6766               253.9520
 Red. masses --      8.0067                 4.9443                10.5615
 Frc consts  --      0.1088                 0.0869                 0.4013
 IR Inten    --      0.0270                 0.3014                 1.1030

                     10                     11                     12
                      A                      A                      A
 Frequencies --    275.0377               315.7586               316.8778
 Red. masses --     14.2761                10.4413                 5.3867
 Frc consts  --      0.6363                 0.6134                 0.3187
 IR Inten    --      0.5502                 0.3823                 0.0683

                     13                     14                     15
                      A                      A                      A
 Frequencies --    323.9013               342.1065               432.1278
 Red. masses --     13.8654                 7.5728                 8.8238
 Frc consts  --      0.8571                 0.5222                 0.9708
 IR Inten    --      1.4725                 0.1850                11.2460

                     16                     17                     18
                      A                      A                      A
 Frequencies --    439.0415               476.7867               496.3528
 Red. masses --      9.5068                 4.9475                11.9684
 Frc consts  --      1.0797                 0.6627                 1.7373
 IR Inten    --      6.3014                 9.8464                 0.1896

                     19                     20                     21
                      A                      A                      A
 Frequencies --    521.6393               556.9568               567.1975
 Red. masses --      8.6462                 4.0421                14.8294
 Frc consts  --      1.3862                 0.7387                 2.8109
 IR Inten    --      7.3615                10.1999                 0.4388

                     22                     23                     24
                      A                      A                      A
 Frequencies --    617.4025               633.3724               651.1993
 Red. masses --      6.7881                 1.5706                 4.7850
 Frc consts  --      1.5245                 0.3712                 1.1955
 IR Inten    --      5.2388                86.5460                82.8237

                     25                     26                     27
                      A                      A                      A
 Frequencies --    676.1443               681.3970               715.1006
 Red. masses --      7.6813                13.1593                 2.5404
 Frc consts  --      2.0690                 3.5999                 0.7654
 IR Inten    --      0.7408                43.6724                 6.6798

                     28                     29                     30
                      A                      A                      A
 Frequencies --    724.9645               777.3751               861.6131
 Red. masses --     11.9025                 5.8494                12.1268
 Frc consts  --      3.6857                 2.0827                 5.3042
 IR Inten    --      1.0009                46.8335                30.3193

                     31                     32                     33
                      A                      A                      A
 Frequencies --    888.5964               932.4406               956.9135
 Red. masses --      8.0175                 1.5968                 1.3894
 Frc consts  --      3.7299                 0.8180                 0.7496
 IR Inten    --      7.2347                30.1360                 0.1316

                     34                     35                     36
                      A                      A                      A
 Frequencies --    970.7050              1022.7489              1120.7018
 Red. masses --      1.3907                 6.3284                 2.5413
 Frc consts  --      0.7721                 3.9001                 1.8806
 IR Inten    --      1.9809                 0.3789                 0.4156

                     37                     38                     39
                      A                      A                      A
 Frequencies --   1125.6236              1145.1411              1194.0266
 Red. masses --      1.9684                 3.4940                 3.9648
 Frc consts  --      1.4694                 2.6995                 3.3305
 IR Inten    --      3.7413                45.3099               149.0148

                     40                     41                     42
                      A                      A                      A
 Frequencies --   1198.5292              1199.5524              1219.1229
 Red. masses --     11.6880                 2.8028                 7.7965
 Frc consts  --      9.8921                 2.3762                 6.8272
 IR Inten    --    468.8915               282.5965                95.2200

                     43                     44                     45
                      A                      A                      A
 Frequencies --   1224.5637              1295.4785              1299.8676
 Red. masses --      6.6784                 2.8860                 1.5213
 Frc consts  --      5.9005                 2.8537                 1.5145
 IR Inten    --    238.0256               497.2665               130.4025

                     46                     47                     48
                      A                      A                      A
 Frequencies --   1358.0430              1383.0990              1428.4780
 Red. masses --      2.8953                 6.5391                 6.2809
 Frc consts  --      3.1461                 7.3702                 7.5513
 IR Inten    --    257.5455                 8.6941                15.9977

                     49                     50                     51
                      A                      A                      A
 Frequencies --   1494.5904              1500.8638              1667.6142
 Red. masses --      4.4190                 4.4889                 6.3018
 Frc consts  --      5.8159                 5.9576                10.3253
 IR Inten    --      7.2831                 2.8381                17.2878

                     52                     53                     54
                      A                      A                      A
 Frequencies --   1671.1870              1829.7086              3235.7610
 Red. masses --      6.3293                10.3599                 1.0916
 Frc consts  --     10.4149                20.4348                 6.7342
 IR Inten    --     19.7868               280.2093                 0.4722

                     55                     56                     57
                      A                      A                      A
 Frequencies --   3237.0926              3245.6804              3766.6899
 Red. masses --      1.0915                 1.0916                 1.0644
 Frc consts  --      6.7390                 6.7754                 8.8978
 IR Inten    --      3.1365                 1.2614                93.8113

 - Thermochemistry -
 -------------------
 Temperature   298.150 Kelvin.  Pressure   1.00000 Atm.
 Atom     1 has atomic number  8 and mass  15.99491

 Molecular mass:   258.01155 amu.
 Principal axes and moments of inertia in atomic units:
                           1         2         3
     Eigenvalues --  3932.862014880.030948173.00096
           X            0.99956   0.02951   0.00043
           Y           -0.02951   0.99956   0.00012
           Z           -0.00043  -0.00013   1.00000
 This molecule is an asymmetric top.
 Rotational symmetry number  1.
 Warning -- assumption of classical behavior for rotation
           may cause significant error
 Rotational temperatures (Kelvin)      0.02202     0.01775     0.01060
 Rotational constants (GHZ):           0.45889     0.36982     0.22082
 Zero-point vibrational energy     328964.6 (Joules/Mol)
                                   78.62443 (Kcal/Mol)
 Warning -- explicit consideration of  22 degrees of freedom as
           vibrations may cause significant error
 Vibrational temperatures:     21.56    24.40    80.36   118.13   162.69
          (Kelvin)            175.47   218.47   248.44   365.38   395.72
                              454.31   455.92   466.02   492.22   621.74
                              631.68   685.99   714.14   750.52   801.34
                              816.07   888.30   911.28   936.93   972.82
                              980.38  1028.87  1043.06  1118.47  1239.67
                             1278.49  1341.57  1376.79  1396.63  1471.51
                             1612.44  1619.52  1647.60  1717.94  1724.42
                             1725.89  1754.05  1761.87  1863.90  1870.22
                             1953.92  1989.97  2055.26  2150.38  2159.41
                             2399.32  2404.47  2632.54  4655.54  4657.45
                             4669.81  5419.43

 Zero-point correction=                           0.125296 (Hartree/Particle)
 Thermal correction to Energy=                    0.139734
 Thermal correction to Enthalpy=                  0.140678
 Thermal correction to Gibbs Free Energy=         0.080369
 Sum of electronic and zero-point Energies=          -1094.817353
 Sum of electronic and thermal Energies=             -1094.802915
 Sum of electronic and thermal Enthalpies=           -1094.801970
 Sum of electronic and thermal Free Energies=        -1094.862280

                     E (Thermal)             CV                S
                      KCal/Mol        Cal/Mol-Kelvin    Cal/Mol-Kelvin
 Total                   87.684             52.534            126.931
 Electronic               0.000              0.000              0.000
 Translational            0.889              2.981             42.543
 Rotational               0.889              2.981             33.417
 Vibrational             85.907             46.572             50.971
 Vibration     1          0.593              1.986              7.207
 Vibration     2          0.593              1.986              6.962
 Vibration     3          0.596              1.975              4.599
 Vibration     4          0.600              1.961              3.840
 Vibration     5          0.607              1.939              3.215
 Vibration     6          0.609              1.931              3.069
 Vibration     7          0.619              1.901              2.649
 Vibration     8          0.626              1.876              2.406
 Vibration     9          0.665              1.756              1.703
 Vibration    10          0.677              1.719              1.564
 Vibration    11          0.703              1.644              1.332
 Vibration    12          0.704              1.641              1.326
 Vibration    13          0.708              1.628              1.290
 Vibration    14          0.721              1.591              1.202
 Vibration    15          0.793              1.400              0.852
 Vibration    16          0.799              1.385              0.830
 Vibration    17          0.833              1.302              0.719
 Vibration    18          0.852              1.258              0.667
 Vibration    19          0.877              1.202              0.606
 Vibration    20          0.912              1.124              0.530
 Vibration    21          0.923              1.102              0.510
 Vibration    22          0.977              0.995              0.421

 Optimization completed.
    -- Stationary point found.
 Normal termination of Gaussian 16 at Thu Feb 10 10:36:10 2022.

 ----------------------------------------------------------------------
 # M062X/def2tzvp int=(grid=ultrafine) pop=nbo7 polar prop=efg volume g
 uess=read geom=check
 ----------------------------------------------------------------------

 -------
 Ac3.xyz
 -------
 Structure from the checkpoint file:  "Ac3_conf-1-retry-1.chk"
 Charge =  0 Multiplicity = 1

 SCF Done:  E(RM062X) =  -1094.99899559     A.U. after   12 cycles

  Exact polarizability:     126.211      -0.460     136.033       0.812      -0.102      68.306
 Approx polarizability:     157.330      -3.489     163.216       1.736      -0.244      93.402

 Summary of Natural Population Analysis:

                                     Natural Population
             Natural    ---------------------------------------------
  Atom No    Charge        Core      Valence    Rydberg      Total
 --------------------------------------------------------------------
    O  1   -0.68081      2.00000     6.65943    0.02139     8.68081
    C  2    0.77631      1.99999     3.18889    0.03482     5.22369
    C  3   -0.16727      1.99999     4.14738    0.01989     6.16727
    C  4   -0.11552      1.99999     4.09877    0.01676     6.11552
    C  5   -0.14434      1.99999     4.12582    0.01853     6.14434
    C  6    0.98104      1.99999     2.97166    0.04731     5.01896
    F  7   -0.32077      2.00000     7.31075    0.01002     9.32077
    F  8   -0.32260      2.00000     7.31250    0.01011     9.32260
    F  9   -0.31977      2.00000     7.30956    0.01022     9.31977
    C 10   -0.13259      1.99999     4.11664    0.01595     6.13259
    C 11   -0.14531      1.99999     4.12667    0.01865     6.14531
    C 12    0.98108      1.99999     2.97163    0.04730     5.01892
    F 13   -0.32098      2.00000     7.31097    0.01001     9.32098
    F 14   -0.32154      2.00000     7.31140    0.01014     9.32154
    F 15   -0.32184      2.00000     7.31170    0.01014     9.32184
    C 16   -0.12451      1.99999     4.10825    0.01627     6.12451
    O 17   -0.57606      2.00000     6.55060    0.02546     8.57606
    H 18    0.50458      0.00000     0.49284    0.00259     0.49542
    H 19    0.26182      0.00000     0.73689    0.00129     0.73818
    H 20    0.25286      0.00000     0.74589    0.00125     0.74714
    H 21    0.25623      0.00000     0.74251    0.00126     0.74377
 ====================================================================
 * Total *  0.00000     33.99990    93.65075    0.34935   128.00000

 1\1\GINC-NOTCH296\SP\RM062X\def2TZVP\C9H4F6O2\U6032257\10-Feb-2022\0\\
 # M062X/def2tzvp int=(grid=ultrafine) pop=nbo7 polar prop=efg volume g
 uess=read geom=check\\Ac3.xyz\\0,1\O,0,-1.3932698865,3.6212732349,-0.1
 10665794\C,0,-0.1328408991,3.1298070056,-0.1206079924\C,0,-0.094802403
 2,1.6426528059,-0.0566792864\C,0,1.1580537795,1.0232190822,-0.06437409
 4\C,0,1.2424051545,-0.3647717428,-0.0074189728\C,0,2.5869130614,-1.039
 4364982,-0.0818371071\F,0,2.9356789851,-1.2962249458,-1.3618841959\F,0
 ,2.5861215421,-2.2196182209,0.5741214392\F,0,3.5587748157,-0.271463342

 Normal termination of Gaussian 16 at Thu Feb 10 10:38:45 2022.
 Gaussian 16:  ES64L-G16RevC.01  3-Jul-2019

 --------------------------------------------------------------------
 # M062X/def2tzvp int=(grid=ultrafine) nmr=giao guess=read geom=check
 --------------------------------------------------------------------

 -------
 Ac3.xyz
 -------
 Structure from the checkpoint file:  "Ac3_conf-1-retry-1.chk"
 Charge =  0 Multiplicity = 1

                         Standard orientation:
 ---------------------------------------------------------------------
 Center     Atomic      Atomic             Coordinates (Angstroms)
 Number     Number       Type             X           Y           Z
 ---------------------------------------------------------------------
      1          8           0        1.363775    3.627961    0.033418
      2          6           0        0.107475    3.127274   -0.003211
      3          6           0        0.081307    1.638492   -0.000662
      4          6           0       -1.166595    1.009934   -0.033231
      5          6           0       -1.239942   -0.379848   -0.030828
      6          6           0       -2.582729   -1.061276    0.000667
      7          9           0       -3.000155   -1.262218    1.270106
      8          9           0       -2.539172   -2.270107   -0.599283
      9          9           0       -3.527992   -0.326285   -0.619109
     10          6           0       -0.075691   -1.148155    0.000340
     11          6           0        1.166127   -0.515318    0.031230
     12          6           0        2.425132   -1.340943   -0.000620
     13          9           0        2.829616   -1.569788   -1.269645
     14          9           0        3.441418   -0.721357    0.635147
     15          9           0        2.245655   -2.544589    0.582970
     16          6           0        1.251777    0.875876    0.032648
     17          8           0       -0.880687    3.829885   -0.034536
     18          1           0        1.270603    4.594964    0.028910
     19          1           0       -2.061426    1.619762   -0.063612
     20          1           0       -0.136215   -2.229509    0.000400
     21          1           0        2.216850    1.364895    0.063578
 ---------------------------------------------------------------------

 SCF Done:  E(RM062X) =  -1094.99899559     A.U. after    1 cycles

      1  O    Isotropic =   116.7193   Anisotropy =   203.5418

      2  C    Isotropic =     2.5878   Anisotropy =   104.7185

      3  C    Isotropic =    33.1158   Anisotropy =   190.8026

      4  C    Isotropic =    29.1523   Anisotropy =   234.3128

      5  C    Isotropic =    28.8770   Anisotropy =   192.0995

      6  C    Isotropic =    51.0666   Anisotropy =    13.9885

      7  F    Isotropic =   223.2546   Anisotropy =   148.7924

      8  F    Isotropic =   248.8955   Anisotropy =   138.6565

      9  F    Isotropic =   249.0065   Anisotropy =   136.9278

     10  C    Isotropic =    34.0653   Anisotropy =   225.5704

     11  C    Isotropic =    29.4655   Anisotropy =   190.9808

     12  C    Isotropic =    51.0236   Anisotropy =    13.7472

     13  F    Isotropic =   223.0870   Anisotropy =   148.9331

     14  F    Isotropic =   248.5331   Anisotropy =   138.5678

     15  F    Isotropic =   248.8992   Anisotropy =   138.1043

     16  C    Isotropic =    31.5236   Anisotropy =   225.3009

     17  O    Isotropic =  -144.5015   Anisotropy =   646.9519

     18  H    Isotropic =    25.1594   Anisotropy =    11.0710

     19  H    Isotropic =    22.2106   Anisotropy =    11.5161

     20  H    Isotropic =    22.8702   Anisotropy =    13.0525

     21  H    Isotropic =    22.4377   Anisotropy =    12.0950

 The electronic state is 1-A.
 Alpha  occ. eigenvalues --  -25.29670 -25.29660 -25.29531 -25.29497 -25.29288
 Alpha  occ. eigenvalues --  -25.29150 -19.70100 -19.64598 -10.81947 -10.81811
 Alpha  occ. eigenvalues --  -10.70960 -10.60807 -10.60745 -10.60490 -10.60359
 Alpha  occ. eigenvalues --  -10.60201 -10.59969  -1.47720  -1.47581  -1.38947
 Alpha  occ. eigenvalues --   -1.38801  -1.38559  -1.38422  -1.26220  -1.16630
 Alpha  occ. eigenvalues --   -1.02780  -0.93771  -0.92676  -0.83865  -0.82940
 Alpha  occ. eigenvalues --   -0.79426  -0.75709  -0.74025  -0.70799  -0.70543
 Alpha  occ. eigenvalues --   -0.70473  -0.70390  -0.68334  -0.64533  -0.62345
 Alpha  occ. eigenvalues --   -0.61025  -0.59927  -0.59096  -0.58921  -0.58658
 Alpha  occ. eigenvalues --   -0.58244  -0.56671  -0.56655  -0.55009  -0.54817
 Alpha  occ. eigenvalues --   -0.54769  -0.53941  -0.53053  -0.52905  -0.52320
 Alpha  occ. eigenvalues --   -0.51108  -0.50324  -0.48719  -0.46934  -0.45485
 Alpha  occ. eigenvalues --   -0.42741  -0.38998  -0.36495  -0.36188
 Alpha virt. eigenvalues --   -0.06089  -0.03970   0.04799   0.05065   0.08800
 Alpha virt. eigenvalues --    0.10648   0.11207   0.11901   0.14066   0.14522
 Alpha virt. eigenvalues --    0.15001   0.15948   0.16073   0.17177   0.19056

 Mulliken charges:
               1
     1  O   -0.412007
     2  C    0.343044
     3  C    0.016180
     4  C   -0.199514
     5  C    0.025150
     6  C    0.505898
     7  F   -0.170644
     8  F   -0.177203
     9  F   -0.173875
    10  C   -0.190874
    11  C    0.016097
    12  C    0.504347
    13  F   -0.170751
    14  F   -0.176114
    15  F   -0.176274
    16  C   -0.201465
    17  O   -0.323437
    18  H    0.347417
    19  H    0.209634
    20  H    0.200909
    21  H    0.203482
 Sum of Mulliken charges =  -0.00000

 Dipole moment (field-independent basis, Debye):
    X=              1.4824    Y=              1.5501    Z=              0.0427  Tot=              2.1453
 Quadrupole moment (field-independent basis, Debye-Ang):
   XX=           -102.3879   YY=            -89.4873   ZZ=            -94.6034
   XY=              8.4090   XZ=              0.2960   YZ=              0.2140

 1\1\GINC-NOTCH296\SP\RM062X\def2TZVP\C9H4F6O2\U6032257\10-Feb-2022\0\\
 # M062X/def2tzvp int=(grid=ultrafine) nmr=giao guess=read geom=check\\
 Ac3.xyz\\0,1\O,0,-1.3932698865,3.6212732349,-0.110665794\C,0,-0.132840
 8991,3.1298070056,-0.1206079924\C,0,-0.0948024032,1.6426528059,-0.0566
 792864\C,0,1.1580537795,1.0232190822,-0.064374094\C,0,1.2424051545,-0.
 3647717428,-0.0074189728\C,0,2.5869130614,-1.0394364982,-0.0818371071\
 F,0,2.9356789851,-1.2962249458,-1.3618841959\F,0,2.5861215421,-2.21961
 82209,0.5741214392\F,0,3.5587748157,-0.2714633429,0.4506648228\C,0,0.0

 Normal termination of Gaussian 16 at Thu Feb 10 10:39:42 2022.
