 Gaussian 16, Revision C.01,

 ----------------------------------------------------------------------
 # B3LYP/6-31G(d,p) empiricaldispersion=GD3BJ int=(grid=ultrafine) opt
 freq=noraman
 ----------------------------------------------------------------------

 -------
 Ac4.xyz
 -------
 Symbolic Z-matrix:
 Charge =  0 Multiplicity = 1

 SCF Done:  E(RB3LYP) =  -535.382243546     A.U. after   15 cycles
 SCF Done:  E(RB3LYP) =  -535.386086696     A.U. after   12 cycles
 SCF Done:  E(RB3LYP) =  -535.386521102     A.U. after   11 cycles
 SCF Done:  E(RB3LYP) =  -535.386635672     A.U. after   10 cycles
 SCF Done:  E(RB3LYP) =  -535.386627511     A.U. after   10 cycles
 SCF Done:  E(RB3LYP) =  -535.386639454     A.U. after    9 cycles
 SCF Done:  E(RB3LYP) =  -535.386644914     A.U. after    8 cycles
 Optimization completed.
    -- Stationary point found.
 Normal termination of Gaussian 16 at Sat Feb  5 09:17:37 2022.

 ----------------------------------------------------------------------
 #N Geom=AllCheck Guess=TCheck SCRF=Check GenChk RB3LYP/6-31G(d,p) Freq
 ----------------------------------------------------------------------

 Structure from the checkpoint file:  "Ac4_conf-2.chk"
 -------
 Ac4.xyz
 -------
 Charge =  0 Multiplicity = 1

 SCF Done:  E(RB3LYP) =  -535.386644914     A.U. after    1 cycles

                      1                      2                      3
                      A                      A                      A
 Frequencies --     22.2482                98.3664               120.5795
 Red. masses --     10.5983                 3.2939                 3.8510
 Frc consts  --      0.0031                 0.0188                 0.0330
 IR Inten    --      1.2635                 4.9050                 0.4950

                      4                      5                      6
                      A                      A                      A
 Frequencies --    192.3481               233.8645               283.8815
 Red. masses --      5.2899                 1.8786                 3.9041
 Frc consts  --      0.1153                 0.0605                 0.1854
 IR Inten    --      2.3033                 0.0001                 0.3044

                      7                      8                      9
                      A                      A                      A
 Frequencies --    289.1941               385.9022               390.9914
 Red. masses --      1.6601                 8.7002                 5.8799
 Frc consts  --      0.0818                 0.7634                 0.5296
 IR Inten    --      0.0151                 2.4405                 5.9049

                     10                     11                     12
                      A                      A                      A
 Frequencies --    434.7173               539.7252               551.1105
 Red. masses --      3.0971                 3.2426                 6.8981
 Frc consts  --      0.3448                 0.5565                 1.2344
 IR Inten    --      5.6096                 1.2192                 3.8255

                     13                     14                     15
                      A                      A                      A
 Frequencies --    590.1614               594.2617               641.3101
 Red. masses --      4.5527                 1.2544                 5.3128
 Frc consts  --      0.9342                 0.2610                 1.2874
 IR Inten    --     10.9517                78.7911                46.1189

                     16                     17                     18
                      A                      A                      A
 Frequencies --    712.3892               751.3500               769.5928
 Red. masses --      3.3520                 4.3350                 1.5794
 Frc consts  --      1.0023                 1.4419                 0.5512
 IR Inten    --     37.5304                14.5163                61.7240

                     19                     20                     21
                      A                      A                      A
 Frequencies --    795.0731               834.0248               868.3403
 Red. masses --      2.9628                 5.5701                 1.5908
 Frc consts  --      1.1035                 2.2828                 0.7067
 IR Inten    --      1.3611                 9.4272                 3.9295

                     22                     23                     24
                      A                      A                      A
 Frequencies --    964.5705               989.6396              1065.2779
 Red. masses --      1.3537                 1.2763                 6.2425
 Frc consts  --      0.7421                 0.7365                 4.1738
 IR Inten    --      0.9982                 0.0065                 3.5154

                     25                     26                     27
                      A                      A                      A
 Frequencies --   1081.0945              1090.6599              1170.6473
 Red. masses --      5.1748                 2.5503                 1.6248
 Frc consts  --      3.5635                 1.7874                 1.3119
 IR Inten    --    102.0308               133.1715                61.2197

                     28                     29                     30
                      A                      A                      A
 Frequencies --   1177.1951              1195.3951              1204.5406
 Red. masses --      1.2741                 1.2142                 1.6345
 Frc consts  --      1.0403                 1.0223                 1.3973
 IR Inten    --      0.7147                92.7056               154.5659

                     31                     32                     33
                      A                      A                      A
 Frequencies --   1212.6860              1306.0469              1323.8596
 Red. masses --      1.3666                 1.9577                 2.6405
 Frc consts  --      1.1841                 1.9675                 2.7266
 IR Inten    --      5.5239                12.9029               189.2918

                     34                     35                     36
                      A                      A                      A
 Frequencies --   1354.8051              1386.3911              1477.4859
 Red. masses --      3.4183                 3.9942                 1.4425
 Frc consts  --      3.6967                 4.5232                 1.8552
 IR Inten    --     30.9203                54.9519                39.1826

                     37                     38                     39
                      A                      A                      A
 Frequencies --   1502.7404              1507.8281              1515.5730
 Red. masses --      1.7641                 1.0466                 1.1170
 Frc consts  --      2.3472                 1.4019                 1.5116
 IR Inten    --      0.0491                 5.9402                59.7864

                     40                     41                     42
                      A                      A                      A
 Frequencies --   1542.9187              1634.0269              1660.0751
 Red. masses --      2.2861                 6.3881                 5.7226
 Frc consts  --      3.2066                10.0495                 9.2919
 IR Inten    --     73.8510                50.8899                54.0218

                     43                     44                     45
                      A                      A                      A
 Frequencies --   1824.7862              3020.1092              3084.4846
 Red. masses --      9.9273                 1.0349                 1.1063
 Frc consts  --     19.4762                 5.5617                 6.2012
 IR Inten    --    331.1996                53.0257                39.0594

                     46                     47                     48
                      A                      A                      A
 Frequencies --   3160.3923              3188.3225              3209.8422
 Red. masses --      1.0999                 1.0876                 1.0929
 Frc consts  --      6.4729                 6.5139                 6.6343
 IR Inten    --     17.6667                 6.3435                16.2097

                     49                     50                     51
                      A                      A                      A
 Frequencies --   3235.9749              3239.6539              3773.1972
 Red. masses --      1.0911                 1.0932                 1.0644
 Frc consts  --      6.7318                 6.7598                 8.9280
 IR Inten    --      8.6480                 1.8169                72.3511

 - Thermochemistry -
 -------------------
 Temperature   298.150 Kelvin.  Pressure   1.00000 Atm.
 Atom     1 has atomic number  8 and mass  15.99491

 Molecular mass:   152.04734 amu.
 Principal axes and moments of inertia in atomic units:
                           1         2         3
     Eigenvalues --  1286.041311574.430392848.95949
           X            0.99129  -0.13169   0.00000
           Y            0.13169   0.99129  -0.00000
           Z            0.00000   0.00000   1.00000
 This molecule is an asymmetric top.
 Rotational symmetry number  1.
 Warning -- assumption of classical behavior for rotation
           may cause significant error
 Rotational temperatures (Kelvin)      0.06735     0.05501     0.03040
 Rotational constants (GHZ):           1.40333     1.14628     0.63347
 Zero-point vibrational energy     389980.5 (Joules/Mol)
                                   93.20758 (Kcal/Mol)
 Warning -- explicit consideration of  14 degrees of freedom as
           vibrations may cause significant error
 Vibrational temperatures:     32.01   141.53   173.49   276.75   336.48
          (Kelvin)            408.44   416.09   555.23   562.55   625.46
                              776.54   792.93   849.11   855.01   922.70
                             1024.97  1081.03  1107.27  1143.93  1199.98
                             1249.35  1387.80  1423.87  1532.70  1555.45
                             1569.22  1684.30  1693.72  1719.91  1733.07
                             1744.78  1879.11  1904.74  1949.26  1994.71
                             2125.77  2162.11  2169.43  2180.57  2219.92
                             2351.00  2388.48  2625.46  4345.26  4437.89
                             4547.10  4587.28  4618.25  4655.85  4661.14
                             5428.79

 Zero-point correction=                           0.148536 (Hartree/Particle)
 Thermal correction to Energy=                    0.158240
 Thermal correction to Enthalpy=                  0.159184
 Thermal correction to Gibbs Free Energy=         0.112368
 Sum of electronic and zero-point Energies=           -535.238109
 Sum of electronic and thermal Energies=              -535.228405
 Sum of electronic and thermal Enthalpies=            -535.227461
 Sum of electronic and thermal Free Energies=         -535.274277

                     E (Thermal)             CV                S
                      KCal/Mol        Cal/Mol-Kelvin    Cal/Mol-Kelvin
 Total                   99.297             36.380             98.534
 Electronic               0.000              0.000              0.000
 Translational            0.889              2.981             40.967
 Rotational               0.889              2.981             30.135
 Vibrational             97.520             30.418             27.432
 Vibration     1          0.593              1.985              6.423
 Vibration     2          0.604              1.950              3.486
 Vibration     3          0.609              1.932              3.091
 Vibration     4          0.634              1.850              2.205
 Vibration     5          0.654              1.789              1.849
 Vibration     6          0.682              1.704              1.510
 Vibration     7          0.686              1.694              1.479
 Vibration     8          0.755              1.500              1.016
 Vibration     9          0.759              1.489              0.996
 Vibration    10          0.795              1.395              0.843
 Vibration    11          0.895              1.162              0.566
 Vibration    12          0.906              1.137              0.542
 Vibration    13          0.948              1.053              0.467
 Vibration    14          0.952              1.044              0.460

 Optimization completed.
    -- Stationary point found.
 Normal termination of Gaussian 16 at Sat Feb  5 09:18:04 2022.

 ----------------------------------------------------------------------
 # M062X/def2tzvp int=(grid=ultrafine) pop=nbo7 polar prop=efg volume g
 uess=read geom=check
 ----------------------------------------------------------------------

 -------
 Ac4.xyz
 -------
 Structure from the checkpoint file:  "Ac4_conf-2.chk"
 Charge =  0 Multiplicity = 1

 SCF Done:  E(RM062X) =  -535.337584661     A.U. after   12 cycles

  Exact polarizability:     122.580       1.633     126.804      -0.000       0.000      59.064
 Approx polarizability:     147.754       3.362     160.847      -0.000       0.001      80.286

 Summary of Natural Population Analysis:

                                     Natural Population
             Natural    ---------------------------------------------
  Atom No    Charge        Core      Valence    Rydberg      Total
 --------------------------------------------------------------------
    O  1   -0.69845      2.00000     6.67764    0.02081     8.69845
    C  2    0.77434      1.99999     3.19027    0.03540     5.22566
    C  3   -0.23274      1.99999     4.21236    0.02040     6.23274
    C  4   -0.14014      1.99999     4.12367    0.01648     6.14014
    C  5   -0.25655      1.99999     4.23955    0.01701     6.25655
    C  6   -0.15867      1.99999     4.14197    0.01671     6.15867
    C  7   -0.31688      1.99999     4.29979    0.01710     6.31688
    C  8    0.35750      1.99999     3.62254    0.01997     5.64250
    O  9   -0.44423      1.99999     6.41996    0.02427     8.44423
    C 10   -0.25901      1.99999     4.24440    0.01461     6.25901
    O 11   -0.57368      2.00000     6.54808    0.02561     8.57368
    H 12    0.49724      0.00000     0.49975    0.00300     0.50276
    H 13    0.23798      0.00000     0.76077    0.00125     0.76202
    H 14    0.22016      0.00000     0.77875    0.00110     0.77984
    H 15    0.21649      0.00000     0.78234    0.00117     0.78351
    H 16    0.22256      0.00000     0.77584    0.00160     0.77744
    H 17    0.17427      0.00000     0.82388    0.00184     0.82573
    H 18    0.20555      0.00000     0.79335    0.00110     0.79445
    H 19    0.17427      0.00000     0.82388    0.00184     0.82573
 ====================================================================
 * Total *  0.00000     21.99992    57.75880    0.24128    80.00000

 Normal termination of Gaussian 16 at Sat Feb  5 09:19:35 2022.
 Gaussian 16:  ES64L-G16RevC.01  3-Jul-2019

 --------------------------------------------------------------------
 # M062X/def2tzvp int=(grid=ultrafine) nmr=giao guess=read geom=check
 --------------------------------------------------------------------

 -------
 Ac4.xyz
 -------
 Structure from the checkpoint file:  "Ac4_conf-2.chk"
 Charge =  0 Multiplicity = 1

                         Standard orientation:
 ---------------------------------------------------------------------
 Center     Atomic      Atomic             Coordinates (Angstroms)
 Number     Number       Type             X           Y           Z
 ---------------------------------------------------------------------
      1          8           0       -2.908148    0.278950    0.000148
      2          6           0       -1.784939   -0.499822   -0.000028
      3          6           0       -0.545293    0.316869   -0.000010
      4          6           0       -0.635281    1.716627   -0.000021
      5          6           0        0.497870    2.521564   -0.000027
      6          6           0        1.755092    1.920152   -0.000018
      7          6           0        1.880043    0.533441   -0.000001
      8          6           0        0.740152   -0.284250    0.000002
      9          8           0        0.804673   -1.633453    0.000029
     10          6           0        2.079232   -2.257569    0.000052
     11          8           0       -1.868004   -1.710038   -0.000164
     12          1           0       -3.645003   -0.352857    0.000103
     13          1           0       -1.621049    2.163867   -0.000028
     14          1           0        0.401356    3.601704   -0.000040
     15          1           0        2.653094    2.530827   -0.000022
     16          1           0        2.866887    0.089955    0.000010
     17          1           0        2.657692   -1.995058    0.894300
     18          1           0        1.879890   -3.329086    0.000071
     19          1           0        2.657707   -1.995093   -0.894195
 ---------------------------------------------------------------------

 SCF Done:  E(RM062X) =  -535.337584661     A.U. after    1 cycles

      1  O    Isotropic =   108.4942   Anisotropy =   224.4945

      2  C    Isotropic =     4.0324   Anisotropy =   105.0544

      3  C    Isotropic =    49.8245   Anisotropy =   162.3363

      4  C    Isotropic =    27.6212   Anisotropy =   219.1712

      5  C    Isotropic =    47.0012   Anisotropy =   199.9711

      6  C    Isotropic =    27.7116   Anisotropy =   223.9647

      7  C    Isotropic =    56.8720   Anisotropy =   185.2807

      8  C    Isotropic =    -0.4402   Anisotropy =   172.4568

      9  O    Isotropic =   207.1809   Anisotropy =   159.8198

     10  C    Isotropic =   129.8409   Anisotropy =    71.1506

     11  O    Isotropic =  -165.9005   Anisotropy =   643.1607

     12  H    Isotropic =    25.8618   Anisotropy =     9.9944

     13  H    Isotropic =    22.7274   Anisotropy =     9.3375

     14  H    Isotropic =    24.2319   Anisotropy =     5.4908

     15  H    Isotropic =    23.5887   Anisotropy =     6.5573

     16  H    Isotropic =    24.3363   Anisotropy =     9.2446

     17  H    Isotropic =    28.2707   Anisotropy =     8.2050

     18  H    Isotropic =    27.6467   Anisotropy =     7.9949

     19  H    Isotropic =    28.2706   Anisotropy =     8.2049

 The electronic state is 1-A.
 Alpha  occ. eigenvalues --  -19.66570 -19.66466 -19.61072 -10.67630 -10.62527
 Alpha  occ. eigenvalues --  -10.59686 -10.56356 -10.56133 -10.55797 -10.55248
 Alpha  occ. eigenvalues --  -10.54648  -1.22723  -1.20202  -1.12899  -0.97144
 Alpha  occ. eigenvalues --   -0.87797  -0.85870  -0.80347  -0.74851  -0.69730
 Alpha  occ. eigenvalues --   -0.67093  -0.62168  -0.58723  -0.57178  -0.56164
 Alpha  occ. eigenvalues --   -0.55981  -0.53822  -0.52875  -0.52178  -0.49076
 Alpha  occ. eigenvalues --   -0.47592  -0.45773  -0.44993  -0.43009  -0.41083
 Alpha  occ. eigenvalues --   -0.40441  -0.39233  -0.34618  -0.32351  -0.28962
 Alpha virt. eigenvalues --   -0.02208   0.02446   0.06777   0.07766   0.08749
 Alpha virt. eigenvalues --    0.09160   0.10594   0.11734   0.13551   0.14711
 Alpha virt. eigenvalues --    0.14802   0.15196   0.16294   0.19097   0.20503

 Mulliken charges:
               1
     1  O   -0.430111
     2  C    0.326148
     3  C   -0.018999
     4  C   -0.137348
     5  C   -0.173427
     6  C   -0.130018
     7  C   -0.251626
     8  C    0.246674
     9  O   -0.233345
    10  C   -0.316649
    11  O   -0.314998
    12  H    0.336139
    13  H    0.171870
    14  H    0.146320
    15  H    0.149734
    16  H    0.162965
    17  H    0.151922
    18  H    0.162827
    19  H    0.151922
 Sum of Mulliken charges =  -0.00000

 Dipole moment (field-independent basis, Debye):
    X=              2.2423    Y=              1.2986    Z=              0.0002  Tot=              2.5912
 Quadrupole moment (field-independent basis, Debye-Ang):
   XX=            -50.9817   YY=            -61.7764   ZZ=            -66.3874
   XY=             -4.6064   XZ=             -0.0001   YZ=             -0.0010

 Normal termination of Gaussian 16 at Sat Feb  5 09:20:10 2022.
