 Gaussian 16, Revision C.01,

 ----------------------------------------------------------------------
 # B3LYP/6-31G(d,p) empiricaldispersion=GD3BJ int=(grid=ultrafine) opt
 freq=noraman
 ----------------------------------------------------------------------

 -------
 Ac4.xyz
 -------
 Symbolic Z-matrix:
 Charge =  0 Multiplicity = 1

 SCF Done:  E(RB3LYP) =  -535.381173684     A.U. after   15 cycles
 SCF Done:  E(RB3LYP) =  -535.384003298     A.U. after   13 cycles
 SCF Done:  E(RB3LYP) =  -535.383771765     A.U. after   13 cycles
 SCF Done:  E(RB3LYP) =  -535.384118631     A.U. after   12 cycles
 SCF Done:  E(RB3LYP) =  -535.384692627     A.U. after   13 cycles
 SCF Done:  E(RB3LYP) =  -535.384771602     A.U. after   11 cycles
 SCF Done:  E(RB3LYP) =  -535.384803798     A.U. after   11 cycles
 SCF Done:  E(RB3LYP) =  -535.384820483     A.U. after   11 cycles
 SCF Done:  E(RB3LYP) =  -535.384834682     A.U. after   11 cycles
 SCF Done:  E(RB3LYP) =  -535.384838205     A.U. after    9 cycles
 SCF Done:  E(RB3LYP) =  -535.384838529     A.U. after    8 cycles
 SCF Done:  E(RB3LYP) =  -535.384838714     A.U. after    8 cycles
 SCF Done:  E(RB3LYP) =  -535.384838750     A.U. after    7 cycles
 Optimization completed.
    -- Stationary point found.
 Normal termination of Gaussian 16 at Sat Feb  5 09:20:22 2022.

 ----------------------------------------------------------------------
 #N Geom=AllCheck Guess=TCheck SCRF=Check GenChk RB3LYP/6-31G(d,p) Freq
 ----------------------------------------------------------------------

 Structure from the checkpoint file:  "Ac4_conf-3.chk"
 -------
 Ac4.xyz
 -------
 Charge =  0 Multiplicity = 1

 SCF Done:  E(RB3LYP) =  -535.384838750     A.U. after    1 cycles

                      1                      2                      3
                      A                      A                      A
 Frequencies --     39.8980               108.9485               136.3972
 Red. masses --      8.4577                 3.9275                 2.9960
 Frc consts  --      0.0079                 0.0275                 0.0328
 IR Inten    --      1.1661                 1.0975                 3.9785

                      4                      5                      6
                      A                      A                      A
 Frequencies --    155.9760               187.3439               218.9990
 Red. masses --      1.1446                 3.6653                 4.9977
 Frc consts  --      0.0164                 0.0758                 0.1412
 IR Inten    --      0.2625                 4.1469                 0.5291

                      7                      8                      9
                      A                      A                      A
 Frequencies --    316.0765               345.3689               409.7959
 Red. masses --      4.4499                 7.3107                 5.3321
 Frc consts  --      0.2619                 0.5138                 0.5276
 IR Inten    --      3.0022                 0.4631                 4.3411

                     10                     11                     12
                      A                      A                      A
 Frequencies --    439.4810               525.8848               548.0537
 Red. masses --      4.0470                 5.0584                 4.7915
 Frc consts  --      0.4605                 0.8242                 0.8479
 IR Inten    --      6.1717                14.3687                 9.1708

                     13                     14                     15
                      A                      A                      A
 Frequencies --    589.7320               609.1757               643.0521
 Red. masses --      3.6216                 1.2963                 5.2752
 Frc consts  --      0.7421                 0.2834                 1.2852
 IR Inten    --     10.2018                65.4385                40.4127

                     16                     17                     18
                      A                      A                      A
 Frequencies --    721.4796               746.2612               789.2075
 Red. masses --      3.2316                 3.5135                 1.7565
 Frc consts  --      0.9911                 1.1529                 0.6446
 IR Inten    --     53.1984                27.9158                28.5860

                     19                     20                     21
                      A                      A                      A
 Frequencies --    805.5941               837.9663               896.9866
 Red. masses --      3.2084                 4.8187                 1.5848
 Frc consts  --      1.2268                 1.9936                 0.7513
 IR Inten    --      2.3951                12.0276                 3.1498

                     22                     23                     24
                      A                      A                      A
 Frequencies --    969.6239               995.9622              1044.8866
 Red. masses --      1.3629                 1.2791                 7.7245
 Frc consts  --      0.7549                 0.7476                 4.9689
 IR Inten    --      1.4972                 0.1593                71.2280

                     25                     26                     27
                      A                      A                      A
 Frequencies --   1071.3328              1089.9951              1158.7856
 Red. masses --      2.3282                 4.1562                 1.6465
 Frc consts  --      1.5744                 2.9094                 1.3027
 IR Inten    --      9.4176               145.8512                31.0526

                     28                     29                     30
                      A                      A                      A
 Frequencies --   1175.5929              1187.5969              1210.4008
 Red. masses --      1.2499                 1.1649                 1.7606
 Frc consts  --      1.0177                 0.9680                 1.5197
 IR Inten    --      1.8230                58.2153               175.5252

                     31                     32                     33
                      A                      A                      A
 Frequencies --   1212.8067              1279.6537              1295.1633
 Red. masses --      1.3922                 2.7449                 1.8196
 Frc consts  --      1.2065                 2.6482                 1.7984
 IR Inten    --      8.9106                76.9199                54.6066

                     34                     35                     36
                      A                      A                      A
 Frequencies --   1349.3115              1386.8318              1470.1564
 Red. masses --      5.4818                 3.0684                 1.4061
 Frc consts  --      5.8802                 3.4770                 1.7906
 IR Inten    --      4.8601               100.3929                22.6911

                     37                     38                     39
                      A                      A                      A
 Frequencies --   1495.4973              1499.2921              1519.6765
 Red. masses --      1.3581                 1.3568                 1.0511
 Frc consts  --      1.7896                 1.7969                 1.4302
 IR Inten    --      4.1100                 2.3244                 5.5935

                     40                     41                     42
                      A                      A                      A
 Frequencies --   1534.0082              1627.4843              1659.0445
 Red. masses --      2.4404                 6.2108                 5.9675
 Frc consts  --      3.3835                 9.6923                 9.6774
 IR Inten    --     67.6867                28.1452                37.2715

                     43                     44                     45
                      A                      A                      A
 Frequencies --   1818.7652              3026.0714              3119.7588
 Red. masses --      9.8396                 1.0406                 1.0934
 Frc consts  --     19.1770                 5.6145                 6.2703
 IR Inten    --    346.6149                65.3201                26.5382

                     46                     47                     48
                      A                      A                      A
 Frequencies --   3159.1343              3188.9074              3205.3541
 Red. masses --      1.1061                 1.0866                 1.0912
 Frc consts  --      6.5037                 6.5105                 6.6056
 IR Inten    --     20.6474                 3.5448                14.2643

                     49                     50                     51
                      A                      A                      A
 Frequencies --   3214.6687              3231.9644              3765.4549
 Red. masses --      1.0954                 1.0935                 1.0643
 Frc consts  --      6.6698                 6.7300                 8.8906
 IR Inten    --      9.3040                 3.7025                74.0122

 - Thermochemistry -
 -------------------
 Temperature   298.150 Kelvin.  Pressure   1.00000 Atm.
 Atom     1 has atomic number  8 and mass  15.99491

 Molecular mass:   152.04734 amu.
 Principal axes and moments of inertia in atomic units:
                           1         2         3
     Eigenvalues --  1233.291301560.548442684.09866
           X            0.99878   0.04926   0.00255
           Y           -0.04929   0.99872   0.01115
           Z           -0.00200  -0.01126   0.99993
 This molecule is an asymmetric top.
 Rotational symmetry number  1.
 Warning -- assumption of classical behavior for rotation
           may cause significant error
 Rotational temperatures (Kelvin)      0.07023     0.05550     0.03227
 Rotational constants (GHZ):           1.46335     1.15648     0.67238
 Zero-point vibrational energy     388994.9 (Joules/Mol)
                                   92.97200 (Kcal/Mol)
 Warning -- explicit consideration of  14 degrees of freedom as
           vibrations may cause significant error
 Vibrational temperatures:     57.40   156.75   196.25   224.41   269.55
          (Kelvin)            315.09   454.76   496.91   589.60   632.32
                              756.63   788.53   848.49   876.47   925.21
                             1038.05  1073.70  1135.49  1159.07  1205.65
                             1290.56  1395.07  1432.97  1503.36  1541.41
                             1568.26  1667.23  1691.42  1708.69  1741.50
                             1744.96  1841.14  1863.45  1941.36  1995.34
                             2115.23  2151.69  2157.15  2186.48  2207.10
                             2341.59  2387.00  2616.80  4353.84  4488.64
                             4545.29  4588.13  4611.79  4625.19  4650.08
                             5417.65

 Zero-point correction=                           0.148160 (Hartree/Particle)
 Thermal correction to Energy=                    0.157978
 Thermal correction to Enthalpy=                  0.158922
 Thermal correction to Gibbs Free Energy=         0.112360
 Sum of electronic and zero-point Energies=           -535.236678
 Sum of electronic and thermal Energies=              -535.226861
 Sum of electronic and thermal Enthalpies=            -535.225917
 Sum of electronic and thermal Free Energies=         -535.272479

                     E (Thermal)             CV                S
                      KCal/Mol        Cal/Mol-Kelvin    Cal/Mol-Kelvin
 Total                   99.133             36.520             97.998
 Electronic               0.000              0.000              0.000
 Translational            0.889              2.981             40.967
 Rotational               0.889              2.981             30.025
 Vibrational             97.355             30.558             27.006
 Vibration     1          0.594              1.981              5.264
 Vibration     2          0.606              1.942              3.288
 Vibration     3          0.614              1.917              2.854
 Vibration     4          0.620              1.896              2.598
 Vibration     5          0.632              1.857              2.254
 Vibration     6          0.647              1.812              1.967
 Vibration     7          0.703              1.643              1.330
 Vibration     8          0.724              1.585              1.187
 Vibration     9          0.774              1.449              0.927
 Vibration    10          0.800              1.384              0.828
 Vibration    11          0.881              1.193              0.596
 Vibration    12          0.903              1.144              0.548
 Vibration    13          0.947              1.054              0.468
 Vibration    14          0.968              1.012              0.434

 Optimization completed.
    -- Stationary point found.
 Normal termination of Gaussian 16 at Sat Feb  5 09:21:02 2022.

 ----------------------------------------------------------------------
 # M062X/def2tzvp int=(grid=ultrafine) pop=nbo7 polar prop=efg volume g
 uess=read geom=check
 ----------------------------------------------------------------------

 -------
 Ac4.xyz
 -------
 Structure from the checkpoint file:  "Ac4_conf-3.chk"
 Charge =  0 Multiplicity = 1

 SCF Done:  E(RM062X) =  -535.335345203     A.U. after   12 cycles

  Exact polarizability:     127.092       3.943     115.364      -0.299      -3.053      60.645
 Approx polarizability:     155.087       5.624     145.799      -1.313      -7.273      83.592

 Summary of Natural Population Analysis:

                                     Natural Population
             Natural    ---------------------------------------------
  Atom No    Charge        Core      Valence    Rydberg      Total
 --------------------------------------------------------------------
    O  1   -0.68928      2.00000     6.66798    0.02130     8.68928
    C  2    0.78280      1.99999     3.18190    0.03531     5.21720
    C  3   -0.22715      1.99999     4.20688    0.02028     6.22715
    C  4   -0.15347      1.99999     4.13689    0.01659     6.15347
    C  5   -0.23439      1.99999     4.21785    0.01654     6.23439
    C  6   -0.17274      1.99999     4.15642    0.01632     6.17274
    C  7   -0.25875      1.99999     4.24083    0.01793     6.25875
    C  8    0.33966      1.99999     3.63902    0.02132     5.66034
    O  9   -0.49917      1.99999     6.47463    0.02455     8.49917
    C 10   -0.25067      1.99999     4.23664    0.01404     6.25067
    O 11   -0.59085      2.00000     6.56531    0.02555     8.59085
    H 12    0.49819      0.00000     0.49898    0.00283     0.50181
    H 13    0.23544      0.00000     0.76329    0.00127     0.76456
    H 14    0.22033      0.00000     0.77857    0.00109     0.77967
    H 15    0.21848      0.00000     0.78038    0.00114     0.78152
    H 16    0.22817      0.00000     0.77043    0.00139     0.77183
    H 17    0.19496      0.00000     0.80323    0.00181     0.80504
    H 18    0.19493      0.00000     0.80388    0.00119     0.80507
    H 19    0.16348      0.00000     0.83474    0.00178     0.83652
 ====================================================================
 * Total *  0.00000     21.99992    57.75786    0.24222    80.00000

 Normal termination of Gaussian 16 at Sat Feb  5 09:23:19 2022.
 Gaussian 16:  ES64L-G16RevC.01  3-Jul-2019

 --------------------------------------------------------------------
 # M062X/def2tzvp int=(grid=ultrafine) nmr=giao guess=read geom=check
 --------------------------------------------------------------------

 -------
 Ac4.xyz
 -------
 Structure from the checkpoint file:  "Ac4_conf-3.chk"
 Charge =  0 Multiplicity = 1

                         Standard orientation:
 ---------------------------------------------------------------------
 Center     Atomic      Atomic             Coordinates (Angstroms)
 Number     Number       Type             X           Y           Z
 ---------------------------------------------------------------------
      1          8           0        1.813628   -2.127040   -0.181330
      2          6           0        1.532706   -0.804032   -0.030173
      3          6           0        0.071397   -0.540484   -0.021739
      4          6           0       -0.825614   -1.595519    0.214840
      5          6           0       -2.198431   -1.380680    0.240885
      6          6           0       -2.700465   -0.098559    0.008717
      7          6           0       -1.828075    0.956460   -0.242107
      8          6           0       -0.445698    0.752015   -0.256600
      9          8           0        0.353925    1.813422   -0.579127
     10          6           0        0.859843    2.554327    0.536309
     11          8           0        2.420225    0.016348    0.091728
     12          1           0        2.782240   -2.187504   -0.142371
     13          1           0       -0.424584   -2.587711    0.381603
     14          1           0       -2.873261   -2.208046    0.433395
     15          1           0       -3.771644    0.078653    0.017549
     16          1           0       -2.194790    1.956708   -0.446132
     17          1           0        1.519292    1.932553    1.146016
     18          1           0        1.430444    3.382837    0.114433
     19          1           0        0.036111    2.949494    1.144541
 ---------------------------------------------------------------------

 SCF Done:  E(RM062X) =  -535.335345203     A.U. after    1 cycles

      1  O    Isotropic =   107.0720   Anisotropy =   219.1143

      2  C    Isotropic =     1.6183   Anisotropy =   109.7858

      3  C    Isotropic =    41.2598   Anisotropy =   172.0218

      4  C    Isotropic =    29.3831   Anisotropy =   216.2773

      5  C    Isotropic =    41.4294   Anisotropy =   208.5781

      6  C    Isotropic =    27.1434   Anisotropy =   224.1552

      7  C    Isotropic =    38.2509   Anisotropy =   186.1276

      8  C    Isotropic =    -3.6272   Anisotropy =   177.1792

      9  O    Isotropic =   248.5125   Anisotropy =   128.9156

     10  C    Isotropic =   119.7206   Anisotropy =    94.5564

     11  O    Isotropic =  -159.5910   Anisotropy =   628.5791

     12  H    Isotropic =    25.6253   Anisotropy =    10.0976

     13  H    Isotropic =    22.9046   Anisotropy =     9.0361

     14  H    Isotropic =    23.9623   Anisotropy =     5.7488

     15  H    Isotropic =    23.5556   Anisotropy =     6.2253

     16  H    Isotropic =    23.9706   Anisotropy =     7.9264

     17  H    Isotropic =    27.3153   Anisotropy =     6.4248

     18  H    Isotropic =    27.8302   Anisotropy =     8.7020

     19  H    Isotropic =    28.5187   Anisotropy =     8.1376

 The electronic state is 1-A.
 Alpha  occ. eigenvalues --  -19.67585 -19.64345 -19.62183 -10.68616 -10.61748
 Alpha  occ. eigenvalues --  -10.57999 -10.56930 -10.56273 -10.56221 -10.55396
 Alpha  occ. eigenvalues --  -10.55312  -1.23762  -1.18060  -1.13940  -0.97376
 Alpha  occ. eigenvalues --   -0.87789  -0.85806  -0.78723  -0.75073  -0.70638
 Alpha  occ. eigenvalues --   -0.66896  -0.61708  -0.59045  -0.57637  -0.56046
 Alpha  occ. eigenvalues --   -0.54680  -0.54063  -0.52858  -0.51887  -0.49784
 Alpha  occ. eigenvalues --   -0.48277  -0.45372  -0.44342  -0.43554  -0.41367
 Alpha  occ. eigenvalues --   -0.40267  -0.36516  -0.34742  -0.32577  -0.30887
 Alpha virt. eigenvalues --   -0.02587   0.01243   0.06849   0.08165   0.08286
 Alpha virt. eigenvalues --    0.09247   0.11113   0.12213   0.13008   0.14194
 Alpha virt. eigenvalues --    0.15493   0.15799   0.17166   0.19464   0.19677

 Mulliken charges:
               1
     1  O   -0.421628
     2  C    0.361172
     3  C   -0.005259
     4  C   -0.158529
     5  C   -0.149902
     6  C   -0.123178
     7  C   -0.166236
     8  C    0.154243
     9  O   -0.306429
    10  C   -0.240659
    11  O   -0.344517
    12  H    0.338570
    13  H    0.172054
    14  H    0.149146
    15  H    0.151180
    16  H    0.157213
    17  H    0.160549
    18  H    0.144290
    19  H    0.127921
 Sum of Mulliken charges =  -0.00000

 Dipole moment (field-independent basis, Debye):
    X=             -1.6383    Y=             -0.7835    Z=              1.1561  Tot=              2.1528
 Quadrupole moment (field-independent basis, Debye-Ang):
   XX=            -57.5902   YY=            -56.7953   ZZ=            -66.7304
   XY=             -3.7745   XZ=              0.2681   YZ=              1.2388

 Normal termination of Gaussian 16 at Sat Feb  5 09:24:09 2022.
