 Gaussian 16, Revision C.01,

 ----------------------------------------------------------------------
 # B3LYP/6-31G(d,p) empiricaldispersion=GD3BJ int=(grid=ultrafine) opt
 freq=noraman
 ----------------------------------------------------------------------

 -------
 Ac4.xyz
 -------
 Symbolic Z-matrix:
 Charge =  0 Multiplicity = 1

 SCF Done:  E(RB3LYP) =  -535.381278472     A.U. after   15 cycles
 SCF Done:  E(RB3LYP) =  -535.383783907     A.U. after   13 cycles
 SCF Done:  E(RB3LYP) =  -535.383166055     A.U. after   13 cycles
 SCF Done:  E(RB3LYP) =  -535.383584403     A.U. after   12 cycles
 SCF Done:  E(RB3LYP) =  -535.384081335     A.U. after    9 cycles
 SCF Done:  E(RB3LYP) =  -535.384308136     A.U. after   12 cycles
 SCF Done:  E(RB3LYP) =  -535.384342308     A.U. after   10 cycles
 SCF Done:  E(RB3LYP) =  -535.384365824     A.U. after   11 cycles
 SCF Done:  E(RB3LYP) =  -535.384378376     A.U. after   11 cycles
 SCF Done:  E(RB3LYP) =  -535.384387825     A.U. after   11 cycles
 SCF Done:  E(RB3LYP) =  -535.384396856     A.U. after   10 cycles
 SCF Done:  E(RB3LYP) =  -535.384398943     A.U. after    9 cycles
 SCF Done:  E(RB3LYP) =  -535.384399306     A.U. after    8 cycles
 SCF Done:  E(RB3LYP) =  -535.384399349     A.U. after    7 cycles
 Optimization completed.
    -- Stationary point found.
 Normal termination of Gaussian 16 at Sat Feb  5 09:21:05 2022.

 ----------------------------------------------------------------------
 #N Geom=AllCheck Guess=TCheck SCRF=Check GenChk RB3LYP/6-31G(d,p) Freq
 ----------------------------------------------------------------------

 Structure from the checkpoint file:  "Ac4_conf-4.chk"
 -------
 Ac4.xyz
 -------
 Charge =  0 Multiplicity = 1

 SCF Done:  E(RB3LYP) =  -535.384399349     A.U. after    1 cycles

                      1                      2                      3
                      A                      A                      A
 Frequencies --     27.9842               106.8959               130.3330
 Red. masses --      7.0191                 3.9789                 3.2325
 Frc consts  --      0.0032                 0.0268                 0.0324
 IR Inten    --      1.8287                 2.3544                 2.4234

                      4                      5                      6
                      A                      A                      A
 Frequencies --    161.7824               180.9416               229.1580
 Red. masses --      1.1439                 3.0970                 5.8868
 Frc consts  --      0.0176                 0.0597                 0.1821
 IR Inten    --      0.1749                 3.1383                 4.7779

                      7                      8                      9
                      A                      A                      A
 Frequencies --    322.0898               355.3524               388.8312
 Red. masses --      4.3509                 8.6684                 6.2447
 Frc consts  --      0.2659                 0.6449                 0.5563
 IR Inten    --      2.6954                 0.3550                 2.2965

                     10                     11                     12
                      A                      A                      A
 Frequencies --    437.9852               534.2617               556.7421
 Red. masses --      3.3507                 4.9813                 6.1497
 Frc consts  --      0.3787                 0.8377                 1.1231
 IR Inten    --      3.9315                 8.4672                 5.3294

                     13                     14                     15
                      A                      A                      A
 Frequencies --    590.4038               620.9745               638.6074
 Red. masses --      3.6048                 1.3463                 5.0233
 Frc consts  --      0.7403                 0.3059                 1.2070
 IR Inten    --      8.8976                57.4965                38.3635

                     16                     17                     18
                      A                      A                      A
 Frequencies --    728.9979               748.1722               790.4668
 Red. masses --      2.7394                 3.8228                 2.0052
 Frc consts  --      0.8578                 1.2608                 0.7382
 IR Inten    --     68.8223                18.0394                33.5040

                     19                     20                     21
                      A                      A                      A
 Frequencies --    805.4759               838.1192               898.6226
 Red. masses --      2.6131                 4.8517                 1.5421
 Frc consts  --      0.9989                 2.0080                 0.7337
 IR Inten    --      0.5396                13.6708                 1.6162

                     22                     23                     24
                      A                      A                      A
 Frequencies --    979.1729              1000.8020              1049.1433
 Red. masses --      1.3506                 1.2858                 7.0239
 Frc consts  --      0.7629                 0.7588                 4.5551
 IR Inten    --      0.9116                 0.1552                57.2577

                     25                     26                     27
                      A                      A                      A
 Frequencies --   1067.8315              1117.8165              1140.3574
 Red. masses --      2.5052                 3.3150                 1.9438
 Frc consts  --      1.6831                 2.4405                 1.4893
 IR Inten    --     32.7993                 6.7494               116.3537

                     28                     29                     30
                      A                      A                      A
 Frequencies --   1177.6105              1184.0564              1210.9077
 Red. masses --      1.2456                 1.1415                 1.4068
 Frc consts  --      1.0177                 0.9429                 1.2153
 IR Inten    --      1.6901                16.4180                 3.5033

                     31                     32                     33
                      A                      A                      A
 Frequencies --   1219.1766              1270.7456              1290.7831
 Red. masses --      1.6719                 2.4935                 1.8618
 Frc consts  --      1.4642                 2.3723                 1.8276
 IR Inten    --    135.9407                82.6318               111.9708

                     34                     35                     36
                      A                      A                      A
 Frequencies --   1354.2779              1400.1840              1477.2631
 Red. masses --      7.4996                 2.5837                 1.3696
 Frc consts  --      8.1041                 2.9845                 1.7610
 IR Inten    --      9.5143               104.9594                65.9517

                     37                     38                     39
                      A                      A                      A
 Frequencies --   1499.1124              1503.1463              1516.0721
 Red. masses --      1.4127                 1.4252                 1.0580
 Frc consts  --      1.8705                 1.8973                 1.4328
 IR Inten    --     12.3226                24.4528                14.1626

                     40                     41                     42
                      A                      A                      A
 Frequencies --   1531.4969              1627.2118              1660.1924
 Red. masses --      2.3465                 6.4081                 6.0184
 Frc consts  --      3.2427                 9.9969                 9.7734
 IR Inten    --     47.3787                 9.4442                62.2598

                     43                     44                     45
                      A                      A                      A
 Frequencies --   1805.8141              3023.6333              3099.9028
 Red. masses --      9.6385                 1.0366                 1.1007
 Frc consts  --     18.5185                 5.5838                 6.2317
 IR Inten    --    322.1115                58.9413                30.6083

                     46                     47                     48
                      A                      A                      A
 Frequencies --   3151.8043              3188.8739              3205.0713
 Red. masses --      1.1030                 1.0866                 1.0906
 Frc consts  --      6.4555                 6.5100                 6.6006
 IR Inten    --     28.6847                 3.8263                12.6247

                     49                     50                     51
                      A                      A                      A
 Frequencies --   3213.1170              3226.2340              3750.3611
 Red. masses --      1.0954                 1.0942                 1.0639
 Frc consts  --      6.6630                 6.7105                 8.8168
 IR Inten    --      8.9915                 5.4428                65.4911

 - Thermochemistry -
 -------------------
 Temperature   298.150 Kelvin.  Pressure   1.00000 Atm.
 Atom     1 has atomic number  8 and mass  15.99491

 Molecular mass:   152.04734 amu.
 Principal axes and moments of inertia in atomic units:
                           1         2         3
     Eigenvalues --  1223.391531565.968542684.73432
           X            0.99589   0.09051   0.00409
           Y           -0.09056   0.99581   0.01283
           Z           -0.00291  -0.01315   0.99991
 This molecule is an asymmetric top.
 Rotational symmetry number  1.
 Warning -- assumption of classical behavior for rotation
           may cause significant error
 Rotational temperatures (Kelvin)      0.07080     0.05531     0.03226
 Rotational constants (GHZ):           1.47520     1.15248     0.67222
 Zero-point vibrational energy     388991.9 (Joules/Mol)
                                   92.97130 (Kcal/Mol)
 Warning -- explicit consideration of  13 degrees of freedom as
           vibrations may cause significant error
 Vibrational temperatures:     40.26   153.80   187.52   232.77   260.33
          (Kelvin)            329.71   463.42   511.27   559.44   630.16
                              768.68   801.03   849.46   893.44   918.81
                             1048.87  1076.45  1137.31  1158.90  1205.87
                             1292.92  1408.81  1439.93  1509.48  1536.37
                             1608.29  1640.72  1694.32  1703.59  1742.23
                             1754.12  1828.32  1857.15  1948.50  2014.55
                             2125.45  2156.89  2162.69  2181.29  2203.48
                             2341.19  2388.65  2598.16  4350.33  4460.07
                             4534.74  4588.08  4611.38  4622.96  4641.83
                             5395.93

 Zero-point correction=                           0.148159 (Hartree/Particle)
 Thermal correction to Energy=                    0.157982
 Thermal correction to Enthalpy=                  0.158927
 Thermal correction to Gibbs Free Energy=         0.112046
 Sum of electronic and zero-point Energies=           -535.236240
 Sum of electronic and thermal Energies=              -535.226417
 Sum of electronic and thermal Enthalpies=            -535.225473
 Sum of electronic and thermal Free Energies=         -535.272353

                     E (Thermal)             CV                S
                      KCal/Mol        Cal/Mol-Kelvin    Cal/Mol-Kelvin
 Total                   99.135             36.425             98.668
 Electronic               0.000              0.000              0.000
 Translational            0.889              2.981             40.967
 Rotational               0.889              2.981             30.021
 Vibrational             97.358             30.463             27.681
 Vibration     1          0.593              1.984              5.967
 Vibration     2          0.606              1.944              3.325
 Vibration     3          0.612              1.923              2.941
 Vibration     4          0.622              1.889              2.529
 Vibration     5          0.630              1.866              2.319
 Vibration     6          0.652              1.796              1.886
 Vibration     7          0.707              1.631              1.299
 Vibration     8          0.731              1.564              1.142
 Vibration     9          0.757              1.494              1.005
 Vibration    10          0.798              1.387              0.833
 Vibration    11          0.889              1.174              0.578
 Vibration    12          0.912              1.125              0.530
 Vibration    13          0.948              1.052              0.466

 Optimization completed.
    -- Stationary point found.
 Normal termination of Gaussian 16 at Sat Feb  5 09:21:39 2022.

 ----------------------------------------------------------------------
 # M062X/def2tzvp int=(grid=ultrafine) pop=nbo7 polar prop=efg volume g
 uess=read geom=check
 ----------------------------------------------------------------------

 -------
 Ac4.xyz
 -------
 Structure from the checkpoint file:  "Ac4_conf-4.chk"
 Charge =  0 Multiplicity = 1

 SCF Done:  E(RM062X) =  -535.334741228     A.U. after   12 cycles

  Exact polarizability:     126.619       0.907     116.299      -0.604      -3.294      60.268
 Approx polarizability:     151.623      -1.666     149.910      -2.499      -8.065      83.013

 Summary of Natural Population Analysis:

                                     Natural Population
             Natural    ---------------------------------------------
  Atom No    Charge        Core      Valence    Rydberg      Total
 --------------------------------------------------------------------
    O  1   -0.67576      2.00000     6.65323    0.02253     8.67576
    C  2    0.78185      1.99999     3.18278    0.03538     5.21815
    C  3   -0.22989      1.99999     4.20942    0.02048     6.22989
    C  4   -0.14393      1.99999     4.12686    0.01708     6.14393
    C  5   -0.23357      1.99999     4.21721    0.01637     6.23357
    C  6   -0.17193      1.99999     4.15558    0.01635     6.17193
    C  7   -0.26166      1.99999     4.24372    0.01794     6.26166
    C  8    0.33196      1.99999     3.64703    0.02101     5.66804
    O  9   -0.49878      1.99999     6.47377    0.02501     8.49878
    C 10   -0.24879      1.99999     4.23465    0.01415     6.24879
    O 11   -0.60057      2.00000     6.57540    0.02518     8.60057
    H 12    0.49744      0.00000     0.49966    0.00290     0.50256
    H 13    0.24272      0.00000     0.75596    0.00132     0.75728
    H 14    0.22093      0.00000     0.77798    0.00108     0.77907
    H 15    0.21840      0.00000     0.78046    0.00114     0.78160
    H 16    0.22708      0.00000     0.77152    0.00140     0.77292
    H 17    0.19540      0.00000     0.80340    0.00120     0.80460
    H 18    0.18138      0.00000     0.81674    0.00188     0.81862
    H 19    0.16770      0.00000     0.83053    0.00177     0.83230
 ====================================================================
 * Total *  0.00000     21.99992    57.75590    0.24418    80.00000

 Normal termination of Gaussian 16 at Sat Feb  5 09:23:29 2022.
 Gaussian 16:  ES64L-G16RevC.01  3-Jul-2019

 --------------------------------------------------------------------
 # M062X/def2tzvp int=(grid=ultrafine) nmr=giao guess=read geom=check
 --------------------------------------------------------------------

 -------
 Ac4.xyz
 -------
 Structure from the checkpoint file:  "Ac4_conf-4.chk"
 Charge =  0 Multiplicity = 1

                         Standard orientation:
 ---------------------------------------------------------------------
 Center     Atomic      Atomic             Coordinates (Angstroms)
 Number     Number       Type             X           Y           Z
 ---------------------------------------------------------------------
      1          8           0        2.378914   -0.091614   -0.085413
      2          6           0        1.438088   -1.063880   -0.050215
      3          6           0        0.029220   -0.583028   -0.043066
      4          6           0       -0.947589   -1.569244    0.174140
      5          6           0       -2.299398   -1.254638    0.201726
      6          6           0       -2.702650    0.067193   -0.003376
      7          6           0       -1.751773    1.056840   -0.231839
      8          6           0       -0.388528    0.746850   -0.254366
      9          8           0        0.492066    1.756499   -0.545070
     10          6           0        0.957148    2.486789    0.590450
     11          8           0        1.747624   -2.239971   -0.008381
     12          1           0        3.227339   -0.566354   -0.080469
     13          1           0       -0.605110   -2.587485    0.318226
     14          1           0       -3.035244   -2.032788    0.374802
     15          1           0       -3.757187    0.325582    0.007495
     16          1           0       -2.042011    2.086014   -0.414827
     17          1           0        1.603790    3.276000    0.204062
     18          1           0        1.533102    1.842251    1.261966
     19          1           0        0.119375    2.936160    1.138942
 ---------------------------------------------------------------------

 SCF Done:  E(RM062X) =  -535.334741228     A.U. after    1 cycles

      1  O    Isotropic =   104.6925   Anisotropy =   211.8483

      2  C    Isotropic =     0.1576   Anisotropy =   106.9647

      3  C    Isotropic =    42.3381   Anisotropy =   172.3371

      4  C    Isotropic =    26.0267   Anisotropy =   225.4849

      5  C    Isotropic =    40.3960   Anisotropy =   209.6480

      6  C    Isotropic =    26.7019   Anisotropy =   223.1116

      7  C    Isotropic =    39.2750   Anisotropy =   185.9728

      8  C    Isotropic =    -2.0500   Anisotropy =   173.6258

      9  O    Isotropic =   250.0493   Anisotropy =   116.7048

     10  C    Isotropic =   119.3957   Anisotropy =    93.4884

     11  O    Isotropic =  -137.4506   Anisotropy =   602.5506

     12  H    Isotropic =    25.2084   Anisotropy =    10.1724

     13  H    Isotropic =    22.5883   Anisotropy =     8.6685

     14  H    Isotropic =    23.9137   Anisotropy =     5.7635

     15  H    Isotropic =    23.5255   Anisotropy =     6.3306

     16  H    Isotropic =    23.9982   Anisotropy =     8.0816

     17  H    Isotropic =    27.8263   Anisotropy =     8.8031

     18  H    Isotropic =    27.8552   Anisotropy =     6.9796

     19  H    Isotropic =    28.4026   Anisotropy =     8.1002

 The electronic state is 1-A.
 Alpha  occ. eigenvalues --  -19.67638 -19.64754 -19.61954 -10.68574 -10.61917
 Alpha  occ. eigenvalues --  -10.58882 -10.56896 -10.56297 -10.55911 -10.55413
 Alpha  occ. eigenvalues --  -10.55318  -1.23872  -1.18462  -1.13890  -0.97344
 Alpha  occ. eigenvalues --   -0.87648  -0.85878  -0.79141  -0.75430  -0.69478
 Alpha  occ. eigenvalues --   -0.67992  -0.62028  -0.59302  -0.57904  -0.55464
 Alpha  occ. eigenvalues --   -0.55001  -0.54484  -0.53129  -0.51421  -0.50247
 Alpha  occ. eigenvalues --   -0.48429  -0.45403  -0.44294  -0.43140  -0.41566
 Alpha  occ. eigenvalues --   -0.40154  -0.36822  -0.35297  -0.32422  -0.31048
 Alpha virt. eigenvalues --   -0.02684   0.01257   0.06515   0.08169   0.08443
 Alpha virt. eigenvalues --    0.09260   0.11274   0.11706   0.12836   0.13948
 Alpha virt. eigenvalues --    0.14952   0.15414   0.16982   0.19197   0.20132

 Mulliken charges:
               1
     1  O   -0.406810
     2  C    0.361815
     3  C   -0.034523
     4  C   -0.152904
     5  C   -0.140096
     6  C   -0.127921
     7  C   -0.166402
     8  C    0.159486
     9  O   -0.306108
    10  C   -0.243353
    11  O   -0.350196
    12  H    0.336673
    13  H    0.180970
    14  H    0.150065
    15  H    0.151391
    16  H    0.159203
    17  H    0.146810
    18  H    0.148208
    19  H    0.133694
 Sum of Mulliken charges =  -0.00000

 Dipole moment (field-independent basis, Debye):
    X=             -1.0241    Y=              1.9334    Z=              1.2152  Tot=              2.5028
 Quadrupole moment (field-independent basis, Debye-Ang):
   XX=            -52.4881   YY=            -64.7256   ZZ=            -66.5587
   XY=              3.9081   XZ=              0.7835   YZ=              1.8414

 Normal termination of Gaussian 16 at Sat Feb  5 09:24:12 2022.
