 Gaussian 16, Revision C.01,

 ----------------------------------------------------------------------
 # B3LYP/6-31G(d,p) empiricaldispersion=GD3BJ int=(grid=ultrafine) opt
 freq=noraman
 ----------------------------------------------------------------------

 -------
 Ac4.xyz
 -------
 Symbolic Z-matrix:
 Charge =  0 Multiplicity = 1

 SCF Done:  E(RB3LYP) =  -535.383319247     A.U. after   15 cycles
 SCF Done:  E(RB3LYP) =  -535.386945028     A.U. after   12 cycles
 SCF Done:  E(RB3LYP) =  -535.387233030     A.U. after   11 cycles
 SCF Done:  E(RB3LYP) =  -535.386940092     A.U. after   12 cycles
 SCF Done:  E(RB3LYP) =  -535.387383976     A.U. after   11 cycles
 SCF Done:  E(RB3LYP) =  -535.387429146     A.U. after   11 cycles
 SCF Done:  E(RB3LYP) =  -535.387436074     A.U. after   10 cycles
 SCF Done:  E(RB3LYP) =  -535.387440629     A.U. after   11 cycles
 SCF Done:  E(RB3LYP) =  -535.387441571     A.U. after    9 cycles
 SCF Done:  E(RB3LYP) =  -535.387441673     A.U. after    8 cycles
 Optimization completed.
    -- Stationary point found.
 Normal termination of Gaussian 16 at Sat Feb  5 09:17:55 2022.

 ----------------------------------------------------------------------
 #N Geom=AllCheck Guess=TCheck SCRF=Check GenChk RB3LYP/6-31G(d,p) Freq
 ----------------------------------------------------------------------

 Structure from the checkpoint file:  "Ac4_conf-1.chk"
 -------
 Ac4.xyz
 -------
 Charge =  0 Multiplicity = 1

 SCF Done:  E(RB3LYP) =  -535.387441673     A.U. after    1 cycles

                      1                      2                      3
                      A                      A                      A
 Frequencies --     30.0753                95.7321               123.1040
 Red. masses --      9.2329                 3.2994                 3.9265
 Frc consts  --      0.0049                 0.0178                 0.0351
 IR Inten    --      1.3310                 5.3138                 0.4639

                      4                      5                      6
                      A                      A                      A
 Frequencies --    197.3480               235.9083               284.6276
 Red. masses --      5.0899                 1.9075                 4.0424
 Frc consts  --      0.1168                 0.0625                 0.1929
 IR Inten    --      0.2977                 0.0272                 2.5024

                      7                      8                      9
                      A                      A                      A
 Frequencies --    290.7431               369.0688               401.2866
 Red. masses --      1.6393                 7.5679                 6.0676
 Frc consts  --      0.0816                 0.6074                 0.5757
 IR Inten    --      0.0053                 3.8684                 2.8386

                     10                     11                     12
                      A                      A                      A
 Frequencies --    439.5271               539.8581               545.5181
 Red. masses --      3.3183                 3.0959                 6.7979
 Frc consts  --      0.3777                 0.5316                 1.1919
 IR Inten    --      2.9933                 0.0049                14.3890

                     13                     14                     15
                      A                      A                      A
 Frequencies --    604.3158               627.5551               639.5447
 Red. masses --      5.0962                 1.4180                 5.0188
 Frc consts  --      1.0965                 0.3290                 1.2095
 IR Inten    --      3.9627                55.6467                47.6041

                     16                     17                     18
                      A                      A                      A
 Frequencies --    722.5737               755.4173               771.2836
 Red. masses --      2.6827                 4.3459                 1.6209
 Frc consts  --      0.8253                 1.4612                 0.5681
 IR Inten    --     48.1295                12.6372                74.6744

                     19                     20                     21
                      A                      A                      A
 Frequencies --    797.4234               834.5053               869.3145
 Red. masses --      2.8990                 5.4595                 1.5360
 Frc consts  --      1.0861                 2.2400                 0.6839
 IR Inten    --      2.7271                13.3889                 2.1476

                     22                     23                     24
                      A                      A                      A
 Frequencies --    973.3672               997.6822              1067.7821
 Red. masses --      1.3296                 1.2906                 5.9603
 Frc consts  --      0.7422                 0.7569                 4.0039
 IR Inten    --      1.1888                 0.2247                34.1071

                     25                     26                     27
                      A                      A                      A
 Frequencies --   1080.3217              1123.5091              1151.1354
 Red. masses --      2.9290                 3.3172                 1.8744
 Frc consts  --      2.0140                 2.4670                 1.4634
 IR Inten    --     31.8960                10.4044               116.6731

                     28                     29                     30
                      A                      A                      A
 Frequencies --   1177.1748              1195.0051              1211.4568
 Red. masses --      1.2733                 1.1179                 1.3925
 Frc consts  --      1.0396                 0.9406                 1.2041
 IR Inten    --      0.7224                14.9204                22.0016

                     31                     32                     33
                      A                      A                      A
 Frequencies --   1219.7639              1295.5627              1319.3957
 Red. masses --      1.6904                 1.9827                 2.4165
 Frc consts  --      1.4818                 1.9607                 2.4785
 IR Inten    --    145.6511                53.2049               215.9312

                     34                     35                     36
                      A                      A                      A
 Frequencies --   1358.6971              1409.2679              1480.6662
 Red. masses --      6.0401                 2.7143                 1.3634
 Frc consts  --      6.5697                 3.1761                 1.7611
 IR Inten    --     27.6241                93.1177                66.0460

                     37                     38                     39
                      A                      A                      A
 Frequencies --   1506.1338              1507.2068              1517.4221
 Red. masses --      1.9418                 1.0466                 1.1709
 Frc consts  --      2.5953                 1.4007                 1.5885
 IR Inten    --     18.9605                 5.8140                82.7652

                     40                     41                     42
                      A                      A                      A
 Frequencies --   1540.6594              1633.2241              1661.5913
 Red. masses --      2.2233                 6.5366                 5.8271
 Frc consts  --      3.1093                10.2730                 9.4788
 IR Inten    --     65.9023                19.1832                91.1048

                     43                     44                     45
                      A                      A                      A
 Frequencies --   1796.3171              3020.9912              3085.6706
 Red. masses --      9.4252                 1.0347                 1.1063
 Frc consts  --     17.9187                 5.5635                 6.2064
 IR Inten    --    341.0255                53.4213                38.2424

                     46                     47                     48
                      A                      A                      A
 Frequencies --   3157.6492              3188.3013              3209.4436
 Red. masses --      1.1002                 1.0876                 1.0919
 Frc consts  --      6.4631                 6.5138                 6.6267
 IR Inten    --     19.4719                 6.7931                13.0965

                     49                     50                     51
                      A                      A                      A
 Frequencies --   3227.7970              3235.5432              3748.2097
 Red. masses --      1.0935                 1.0918                 1.0638
 Frc consts  --      6.7122                 6.7342                 8.8056
 IR Inten    --      5.6494                 8.2069                59.1807

 - Thermochemistry -
 -------------------
 Temperature   298.150 Kelvin.  Pressure   1.00000 Atm.
 Atom     1 has atomic number  8 and mass  15.99491

 Molecular mass:   152.04734 amu.
 Principal axes and moments of inertia in atomic units:
                           1         2         3
     Eigenvalues --  1293.298481559.551402841.33849
           X            0.99740   0.07205  -0.00000
           Y           -0.07205   0.99740   0.00000
           Z            0.00000  -0.00000   1.00000
 This molecule is an asymmetric top.
 Rotational symmetry number  1.
 Warning -- assumption of classical behavior for rotation
           may cause significant error
 Rotational temperatures (Kelvin)      0.06697     0.05554     0.03048
 Rotational constants (GHZ):           1.39546     1.15722     0.63517
 Zero-point vibrational energy     390411.3 (Joules/Mol)
                                   93.31055 (Kcal/Mol)
 Warning -- explicit consideration of  13 degrees of freedom as
           vibrations may cause significant error
 Vibrational temperatures:     43.27   137.74   177.12   283.94   339.42
          (Kelvin)            409.52   418.31   531.01   577.36   632.38
                              776.74   784.88   869.48   902.91   920.16
                             1039.62  1086.88  1109.71  1147.31  1200.67
                             1250.75  1400.46  1435.44  1536.30  1554.34
                             1616.48  1656.23  1693.69  1719.35  1743.02
                             1754.97  1864.03  1898.32  1954.86  2027.62
                             2130.35  2166.99  2168.53  2183.23  2216.67
                             2349.85  2390.66  2584.50  4346.53  4439.59
                             4543.15  4587.25  4617.67  4644.08  4655.23
                             5392.84

 Zero-point correction=                           0.148700 (Hartree/Particle)
 Thermal correction to Energy=                    0.158343
 Thermal correction to Enthalpy=                  0.159287
 Thermal correction to Gibbs Free Energy=         0.112829
 Sum of electronic and zero-point Energies=           -535.238742
 Sum of electronic and thermal Energies=              -535.229098
 Sum of electronic and thermal Enthalpies=            -535.228154
 Sum of electronic and thermal Free Energies=         -535.274613

                     E (Thermal)             CV                S
                      KCal/Mol        Cal/Mol-Kelvin    Cal/Mol-Kelvin
 Total                   99.362             36.202             97.780
 Electronic               0.000              0.000              0.000
 Translational            0.889              2.981             40.967
 Rotational               0.889              2.981             30.128
 Vibrational             97.584             30.240             26.685
 Vibration     1          0.594              1.984              5.824
 Vibration     2          0.603              1.952              3.539
 Vibration     3          0.610              1.930              3.051
 Vibration     4          0.637              1.844              2.158
 Vibration     5          0.655              1.786              1.834
 Vibration     6          0.683              1.702              1.506
 Vibration     7          0.687              1.691              1.470
 Vibration     8          0.741              1.536              1.084
 Vibration     9          0.767              1.467              0.958
 Vibration    10          0.800              1.384              0.828
 Vibration    11          0.895              1.162              0.566
 Vibration    12          0.901              1.149              0.554
 Vibration    13          0.963              1.023              0.442

 Optimization completed.
    -- Stationary point found.
 Normal termination of Gaussian 16 at Sat Feb  5 09:18:25 2022.

 ----------------------------------------------------------------------
 # M062X/def2tzvp int=(grid=ultrafine) pop=nbo7 polar prop=efg volume g
 uess=read geom=check
 ----------------------------------------------------------------------

 -------
 Ac4.xyz
 -------
 Structure from the checkpoint file:  "Ac4_conf-1.chk"
 Charge =  0 Multiplicity = 1

 SCF Done:  E(RM062X) =  -535.337926362     A.U. after   12 cycles

  Exact polarizability:     124.813      -0.461     124.660      -0.000      -0.001      58.979
 Approx polarizability:     154.476       1.034     153.825       0.001      -0.001      80.219

 Summary of Natural Population Analysis:

                                     Natural Population
             Natural    ---------------------------------------------
  Atom No    Charge        Core      Valence    Rydberg      Total
 --------------------------------------------------------------------
    O  1   -0.66200      2.00000     6.63931    0.02269     8.66200
    C  2    0.78127      1.99999     3.18336    0.03538     5.21873
    C  3   -0.23469      1.99999     4.21425    0.02044     6.23469
    C  4   -0.13106      1.99999     4.11419    0.01688     6.13106
    C  5   -0.25493      1.99999     4.23813    0.01681     6.25493
    C  6   -0.15856      1.99999     4.14186    0.01671     6.15856
    C  7   -0.31706      1.99999     4.29998    0.01709     6.31706
    C  8    0.35011      1.99999     3.63005    0.01985     5.64989
    O  9   -0.45393      1.99999     6.42936    0.02458     8.45393
    C 10   -0.25846      1.99999     4.24385    0.01463     6.25846
    O 11   -0.61091      2.00000     6.58587    0.02504     8.61091
    H 12    0.49334      0.00000     0.50367    0.00298     0.50666
    H 13    0.24404      0.00000     0.75468    0.00129     0.75596
    H 14    0.22079      0.00000     0.77813    0.00109     0.77921
    H 15    0.21639      0.00000     0.78244    0.00117     0.78361
    H 16    0.22201      0.00000     0.77639    0.00160     0.77799
    H 17    0.20335      0.00000     0.79555    0.00110     0.79665
    H 18    0.17515      0.00000     0.82301    0.00184     0.82485
    H 19    0.17515      0.00000     0.82301    0.00184     0.82485
 ====================================================================
 * Total *  0.00000     21.99992    57.75709    0.24299    80.00000

 Normal termination of Gaussian 16 at Sat Feb  5 09:20:07 2022.
 Gaussian 16:  ES64L-G16RevC.01  3-Jul-2019

 --------------------------------------------------------------------
 # M062X/def2tzvp int=(grid=ultrafine) nmr=giao guess=read geom=check
 --------------------------------------------------------------------

 -------
 Ac4.xyz
 -------
 Structure from the checkpoint file:  "Ac4_conf-1.chk"
 Charge =  0 Multiplicity = 1

                         Standard orientation:
 ---------------------------------------------------------------------
 Center     Atomic      Atomic             Coordinates (Angstroms)
 Number     Number       Type             X           Y           Z
 ---------------------------------------------------------------------
      1          8           0       -2.029691    1.431610    0.000201
      2          6           0       -1.899314    0.086714   -0.000004
      3          6           0       -0.502059   -0.426021   -0.000001
      4          6           0       -0.378453   -1.822684    0.000063
      5          6           0        0.860579   -2.449638    0.000089
      6          6           0        2.012692   -1.664595    0.000018
      7          6           0        1.925727   -0.274976   -0.000075
      8          6           0        0.675559    0.362348   -0.000068
      9          8           0        0.542320    1.709814   -0.000172
     10          6           0        1.712621    2.512519    0.000070
     11          8           0       -2.877412   -0.640670   -0.000182
     12          1           0       -2.990376    1.581763    0.000172
     13          1           0       -1.298084   -2.396139    0.000085
     14          1           0        0.927851   -3.532000    0.000176
     15          1           0        2.993149   -2.131566    0.000014
     16          1           0        2.834887    0.311615   -0.000184
     17          1           0        1.360721    3.544278    0.000236
     18          1           0        2.323078    2.337178   -0.894133
     19          1           0        2.322938    2.336832    0.894298
 ---------------------------------------------------------------------

 SCF Done:  E(RM062X) =  -535.337926362     A.U. after    1 cycles

      1  O    Isotropic =   100.1446   Anisotropy =   207.0496

      2  C    Isotropic =    -0.7336   Anisotropy =   107.7424

      3  C    Isotropic =    48.9157   Anisotropy =   161.3563

      4  C    Isotropic =    24.6432   Anisotropy =   228.3874

      5  C    Isotropic =    45.7500   Anisotropy =   201.3864

      6  C    Isotropic =    26.8675   Anisotropy =   221.0060

      7  C    Isotropic =    57.5460   Anisotropy =   184.8374

      8  C    Isotropic =     1.8652   Anisotropy =   168.6404

      9  O    Isotropic =   210.8212   Anisotropy =   142.9273

     10  C    Isotropic =   129.7629   Anisotropy =    71.5087

     11  O    Isotropic =  -130.0294   Anisotropy =   586.1327

     12  H    Isotropic =    25.2161   Anisotropy =     9.9484

     13  H    Isotropic =    22.4922   Anisotropy =     8.8000

     14  H    Isotropic =    24.1597   Anisotropy =     5.5109

     15  H    Isotropic =    23.5468   Anisotropy =     6.6725

     16  H    Isotropic =    24.3816   Anisotropy =     9.2407

     17  H    Isotropic =    27.7041   Anisotropy =     8.0215

     18  H    Isotropic =    28.2573   Anisotropy =     8.2623

     19  H    Isotropic =    28.2578   Anisotropy =     8.2615

 The electronic state is 1-A.
 Alpha  occ. eigenvalues --  -19.66728 -19.66725 -19.61074 -10.67841 -10.62661
 Alpha  occ. eigenvalues --  -10.60018 -10.56317 -10.56114 -10.55507 -10.55303
 Alpha  occ. eigenvalues --  -10.54574  -1.23096  -1.20362  -1.12995  -0.97100
 Alpha  occ. eigenvalues --   -0.87768  -0.85803  -0.80403  -0.75187  -0.68947
 Alpha  occ. eigenvalues --   -0.67709  -0.62709  -0.59079  -0.57663  -0.56258
 Alpha  occ. eigenvalues --   -0.55296  -0.54014  -0.53054  -0.52038  -0.49013
 Alpha  occ. eigenvalues --   -0.47945  -0.45861  -0.44941  -0.42866  -0.40776
 Alpha  occ. eigenvalues --   -0.39935  -0.39115  -0.35863  -0.32152  -0.29077
 Alpha virt. eigenvalues --   -0.02232   0.02477   0.06643   0.07754   0.08655
 Alpha virt. eigenvalues --    0.09035   0.10719   0.11800   0.13166   0.14478
 Alpha virt. eigenvalues --    0.14627   0.15130   0.16725   0.19331   0.20586

 Mulliken charges:
               1
     1  O   -0.391106
     2  C    0.347363
     3  C   -0.054176
     4  C   -0.124938
     5  C   -0.165846
     6  C   -0.132743
     7  C   -0.247121
     8  C    0.262584
     9  O   -0.249083
    10  C   -0.319721
    11  O   -0.362125
    12  H    0.331762
    13  H    0.179327
    14  H    0.147112
    15  H    0.149831
    16  H    0.162853
    17  H    0.158812
    18  H    0.153606
    19  H    0.153609
 Sum of Mulliken charges =  -0.00000

 Dipole moment (field-independent basis, Debye):
    X=              3.3108    Y=              1.4605    Z=              0.0005  Tot=              3.6186
 Quadrupole moment (field-independent basis, Debye-Ang):
   XX=            -60.0091   YY=            -55.6433   ZZ=            -66.3569
   XY=             -3.1193   XZ=             -0.0013   YZ=             -0.0002

 Normal termination of Gaussian 16 at Sat Feb  5 09:20:47 2022.
