 Gaussian 16, Revision C.01,

 ----------------------------------------------------------------------
 # B3LYP/6-31G(d,p) empiricaldispersion=GD3BJ int=(grid=ultrafine) opt
 freq=noraman
 ----------------------------------------------------------------------

 -------
 Ac5.xyz
 -------
 Symbolic Z-matrix:
 Charge =  0 Multiplicity = 1

 SCF Done:  E(RB3LYP) =  -538.819306712     A.U. after   15 cycles
 SCF Done:  E(RB3LYP) =  -538.822968479     A.U. after   12 cycles
 SCF Done:  E(RB3LYP) =  -538.822963221     A.U. after   12 cycles
 SCF Done:  E(RB3LYP) =  -538.823093417     A.U. after   12 cycles
 SCF Done:  E(RB3LYP) =  -538.823320359     A.U. after   11 cycles
 SCF Done:  E(RB3LYP) =  -538.823336399     A.U. after    9 cycles
 SCF Done:  E(RB3LYP) =  -538.823340157     A.U. after    9 cycles
 SCF Done:  E(RB3LYP) =  -538.823340969     A.U. after    8 cycles
 SCF Done:  E(RB3LYP) =  -538.823341173     A.U. after    8 cycles
 SCF Done:  E(RB3LYP) =  -538.823341198     A.U. after    7 cycles
 Optimization completed.
    -- Stationary point found.
 Normal termination of Gaussian 16 at Thu Feb  3 03:31:13 2022.

 ----------------------------------------------------------------------
 #N Geom=AllCheck Guess=TCheck SCRF=Check GenChk RB3LYP/6-31G(d,p) Freq
 ----------------------------------------------------------------------

 Structure from the checkpoint file:  "Ac5_conf-1.chk"
 -------
 Ac5.xyz
 -------
 Charge =  0 Multiplicity = 1

 SCF Done:  E(RB3LYP) =  -538.823341198     A.U. after    1 cycles

                      1                      2                      3
                      A                      A                      A
 Frequencies --     42.3967                50.2420               102.9371
 Red. masses --      6.9913                 4.8510                 4.7756
 Frc consts  --      0.0074                 0.0072                 0.0298
 IR Inten    --      0.7591                 0.5624                 0.1686

                      4                      5                      6
                      A                      A                      A
 Frequencies --    183.1857               233.0999               259.3123
 Red. masses --      3.5982                 1.1717                 2.7172
 Frc consts  --      0.0711                 0.0375                 0.1077
 IR Inten    --      0.1864                 0.1394                 0.9459

                      7                      8                      9
                      A                      A                      A
 Frequencies --    263.3828               310.5953               321.9732
 Red. masses --      2.7093                 1.5616                 1.8641
 Frc consts  --      0.1107                 0.0888                 0.1139
 IR Inten    --      0.2011                 0.2359                 0.0243

                     10                     11                     12
                      A                      A                      A
 Frequencies --    355.3270               377.9096               417.3317
 Red. masses --      2.4243                 4.7351                 2.9830
 Frc consts  --      0.1803                 0.3984                 0.3061
 IR Inten    --      2.2497                 1.9992                 0.0064

                     13                     14                     15
                      A                      A                      A
 Frequencies --    474.0087               484.1429               558.4401
 Red. masses --      3.6379                 3.5775                 3.3964
 Frc consts  --      0.4816                 0.4941                 0.6241
 IR Inten    --      1.6894                 5.2272                15.9516

                     16                     17                     18
                      A                      A                      A
 Frequencies --    611.6444               631.7165               637.4241
 Red. masses --      2.0201                 1.9861                 4.8120
 Frc consts  --      0.4453                 0.4670                 1.1520
 IR Inten    --     55.9088                59.2457                11.3037

                     19                     20                     21
                      A                      A                      A
 Frequencies --    717.9693               721.9230               762.4811
 Red. masses --      1.7737                 4.4744                 2.6315
 Frc consts  --      0.5387                 1.3739                 0.9014
 IR Inten    --     27.8698                13.3323                16.9631

                     22                     23                     24
                      A                      A                      A
 Frequencies --    794.6467               833.1228               862.8781
 Red. masses --      2.8643                 2.5300                 1.2472
 Frc consts  --      1.0656                 1.0346                 0.5471
 IR Inten    --     13.7816                18.4639                 0.2890

                     25                     26                     27
                      A                      A                      A
 Frequencies --    929.6374               960.3799               965.7742
 Red. masses --      1.4643                 1.8525                 1.6403
 Frc consts  --      0.7456                 1.0067                 0.9014
 IR Inten    --      1.0834                 1.6407                 1.9567

                     28                     29                     30
                      A                      A                      A
 Frequencies --    979.7094              1000.9833              1020.8329
 Red. masses --      1.3456                 1.2552                 5.7832
 Frc consts  --      0.7610                 0.7410                 3.5508
 IR Inten    --      0.3541                 0.2731                 1.0797

                     31                     32                     33
                      A                      A                      A
 Frequencies --   1037.2658              1061.0456              1112.5817
 Red. masses --      1.3295                 2.4803                 1.7120
 Frc consts  --      0.8428                 1.6452                 1.2486
 IR Inten    --      6.9035                 7.1932                14.1535

                     34                     35                     36
                      A                      A                      A
 Frequencies --   1130.9824              1154.0863              1190.3994
 Red. masses --      2.1858                 2.5958                 1.0935
 Frc consts  --      1.6473                 2.0370                 0.9130
 IR Inten    --     30.4777               170.1339                 0.0671

                     37                     38                     39
                      A                      A                      A
 Frequencies --   1208.4062              1221.7652              1240.9012
 Red. masses --      2.8929                 1.1473                 2.0956
 Frc consts  --      2.4889                 1.0090                 1.9012
 IR Inten    --     13.0800                 0.9029                38.5482

                     40                     41                     42
                      A                      A                      A
 Frequencies --   1265.2524              1345.8070              1369.1342
 Red. masses --      3.2187                 2.9265                 2.7011
 Frc consts  --      3.0359                 3.1229                 2.9832
 IR Inten    --      6.9328                 4.6082                29.8356

                     43                     44                     45
                      A                      A                      A
 Frequencies --   1371.3183              1415.4069              1437.4896
 Red. masses --      1.7113                 1.2349                 1.2349
 Frc consts  --      1.8961                 1.4576                 1.5035
 IR Inten    --      5.4299                 4.7473                 8.5220

                     46                     47                     48
                      A                      A                      A
 Frequencies --   1489.8519              1499.4051              1502.2724
 Red. masses --      1.8963                 1.1359                 1.0630
 Frc consts  --      2.4799                 1.5046                 1.4134
 IR Inten    --      7.9903                 1.5213                 2.1886

                     49                     50                     51
                      A                      A                      A
 Frequencies --   1519.2852              1526.1851              1543.2569
 Red. masses --      1.0495                 1.0712                 2.1348
 Frc consts  --      1.4272                 1.4701                 2.9956
 IR Inten    --      5.4629                14.9757                15.2782

                     52                     53                     54
                      A                      A                      A
 Frequencies --   1641.9093              1663.5882              1828.7153
 Red. masses --      5.5803                 5.5072                10.0880
 Frc consts  --      8.8636                 8.9799                19.8769
 IR Inten    --      1.7559                 7.0432               241.1637

                     55                     56                     57
                      A                      A                      A
 Frequencies --   3056.9186              3062.0789              3124.3633
 Red. masses --      1.0361                 1.0366                 1.1030
 Frc consts  --      5.7048                 5.7267                 6.3439
 IR Inten    --     10.1239                27.2502                 8.1816

                     58                     59                     60
                      A                      A                      A
 Frequencies --   3132.7598              3154.6209              3160.6433
 Red. masses --      1.1030                 1.1022                 1.1009
 Frc consts  --      6.3780                 6.4627                 6.4799
 IR Inten    --     42.1336                13.5837                13.5972

                     61                     62                     63
                      A                      A                      A
 Frequencies --   3179.6410              3187.5176              3197.4193
 Red. masses --      1.0849                 1.0884                 1.0926
 Frc consts  --      6.4622                 6.5153                 6.5813
 IR Inten    --      0.6180                 6.4777                18.4015

                     64                     65                     66
                      A                      A                      A
 Frequencies --   3206.9895              3220.7008              3754.7227
 Red. masses --      1.0970                 1.0926                 1.0642
 Frc consts  --      6.6472                 6.6775                 8.8391
 IR Inten    --     25.1305                10.1926                56.1752

 - Thermochemistry -
 -------------------
 Temperature   298.150 Kelvin.  Pressure   1.00000 Atm.
 Atom     1 has atomic number  8 and mass  15.99491

 Molecular mass:   164.08373 amu.
 Principal axes and moments of inertia in atomic units:
                           1         2         3
     Eigenvalues --  1129.373342622.429192870.39562
           X            0.99961   0.02479   0.01267
           Y           -0.02467   0.99964  -0.01017
           Z           -0.01292   0.00986   0.99987
 This molecule is an asymmetric top.
 Rotational symmetry number  1.
 Warning -- assumption of classical behavior for rotation
           may cause significant error
 Rotational temperatures (Kelvin)      0.07669     0.03303     0.03017
 Rotational constants (GHZ):           1.59800     0.68819     0.62874
 Zero-point vibrational energy     526836.0 (Joules/Mol)
                                  125.91682 (Kcal/Mol)
 Warning -- explicit consideration of  16 degrees of freedom as
           vibrations may cause significant error
 Vibrational temperatures:     61.00    72.29   148.10   263.56   335.38
          (Kelvin)            373.09   378.95   446.88   463.25   511.24
                              543.73   600.45   681.99   696.57   803.47
                              880.02   908.90   917.11  1033.00  1038.69
                             1097.04  1143.32  1198.68  1241.49  1337.54
                             1381.77  1389.53  1409.58  1440.19  1468.75
                             1492.39  1526.61  1600.76  1627.23  1660.47
                             1712.72  1738.63  1757.85  1785.38  1820.42
                             1936.32  1969.88  1973.02  2036.45  2068.23
                             2143.56  2157.31  2161.43  2185.91  2195.84
                             2220.40  2362.34  2393.53  2631.11  4398.22
                             4405.65  4495.26  4507.34  4538.80  4547.46
                             4574.79  4586.13  4600.37  4614.14  4633.87
                             5402.21

 Zero-point correction=                           0.200661 (Hartree/Particle)
 Thermal correction to Energy=                    0.211862
 Thermal correction to Enthalpy=                  0.212806
 Thermal correction to Gibbs Free Energy=         0.163341
 Sum of electronic and zero-point Energies=           -538.622680
 Sum of electronic and thermal Energies=              -538.611480
 Sum of electronic and thermal Enthalpies=            -538.610535
 Sum of electronic and thermal Free Energies=         -538.660000

                     E (Thermal)             CV                S
                      KCal/Mol        Cal/Mol-Kelvin    Cal/Mol-Kelvin
 Total                  132.945             43.441            104.107
 Electronic               0.000              0.000              0.000
 Translational            0.889              2.981             41.194
 Rotational               0.889              2.981             30.520
 Vibrational            131.168             37.479             32.393
 Vibration     1          0.595              1.980              5.144
 Vibration     2          0.595              1.977              4.808
 Vibration     3          0.605              1.947              3.398
 Vibration     4          0.631              1.863              2.296
 Vibration     5          0.654              1.790              1.855
 Vibration     6          0.668              1.747              1.666
 Vibration     7          0.670              1.740              1.639
 Vibration     8          0.699              1.654              1.359
 Vibration     9          0.707              1.631              1.300
 Vibration    10          0.731              1.564              1.142
 Vibration    11          0.748              1.517              1.048
 Vibration    12          0.780              1.433              0.901
 Vibration    13          0.831              1.308              0.726
 Vibration    14          0.840              1.285              0.699
 Vibration    15          0.914              1.121              0.527
 Vibration    16          0.971              1.007              0.430

 Optimization completed.
    -- Stationary point found.
 Normal termination of Gaussian 16 at Thu Feb  3 03:32:15 2022.

 ----------------------------------------------------------------------
 # M062X/def2tzvp int=(grid=ultrafine) pop=nbo7 polar prop=efg volume g
 uess=read geom=check
 ----------------------------------------------------------------------

 -------
 Ac5.xyz
 -------
 Structure from the checkpoint file:  "Ac5_conf-1.chk"
 Charge =  0 Multiplicity = 1

 SCF Done:  E(RM062X) =  -538.739300355     A.U. after   12 cycles

  Exact polarizability:     141.288       1.306     119.319       6.908      -6.988      92.421
 Approx polarizability:     165.265      -2.709     162.324       9.450     -14.233     119.626

 Summary of Natural Population Analysis:

                                     Natural Population
             Natural    ---------------------------------------------
  Atom No    Charge        Core      Valence    Rydberg      Total
 --------------------------------------------------------------------
    O  1   -0.60169      2.00000     6.57533    0.02636     8.60169
    C  2    0.81414      1.99999     3.14578    0.04009     5.18586
    C  3   -0.17013      1.99999     4.15223    0.01790     6.17013
    C  4   -0.00192      1.99999     3.98206    0.01988     6.00192
    C  5   -0.21885      1.99999     4.20232    0.01654     6.21885
    C  6   -0.20143      1.99999     4.18502    0.01642     6.20143
    C  7   -0.21526      1.99999     4.19893    0.01635     6.21526
    C  8   -0.20207      1.99999     4.18564    0.01644     6.20207
    C  9   -0.21899      1.99999     4.20278    0.01621     6.21899
    C 10   -0.60184      1.99999     4.59152    0.01033     6.60184
    C 11   -0.58619      1.99999     4.57570    0.01049     6.58619
    O 12   -0.68784      2.00000     6.66595    0.02189     8.68784
    H 13    0.22430      0.00000     0.77419    0.00151     0.77570
    H 14    0.21578      0.00000     0.78304    0.00118     0.78422
    H 15    0.21543      0.00000     0.78346    0.00112     0.78457
    H 16    0.21440      0.00000     0.78441    0.00118     0.78560
    H 17    0.21589      0.00000     0.78270    0.00141     0.78411
    H 18    0.21264      0.00000     0.78610    0.00127     0.78736
    H 19    0.22741      0.00000     0.77149    0.00110     0.77259
    H 20    0.21797      0.00000     0.78099    0.00104     0.78203
    H 21    0.22564      0.00000     0.77327    0.00110     0.77436
    H 22    0.21477      0.00000     0.78405    0.00119     0.78523
    H 23    0.21164      0.00000     0.78722    0.00114     0.78836
    H 24    0.49620      0.00000     0.50034    0.00345     0.50380
 ====================================================================
 * Total *  0.00000     23.99991    63.75451    0.24558    88.00000

 1\1\GINC-NOTCH075\SP\RM062X\def2TZVP\C10H12O2\U6032257\03-Feb-2022\0\\
 # M062X/def2tzvp int=(grid=ultrafine) pop=nbo7 polar prop=efg volume g
 uess=read geom=check\\Ac5.xyz\\0,1\O,0,-2.4481089866,-1.4464220055,0.8
 958797571\C,0,-1.8552343801,-0.3888522352,0.8993611095\C,0,-1.09247051
 83,0.2097579592,-0.2856307362\C,0,0.40192232,-0.0400305762,-0.01929878
 35\C,0,0.8322917991,-1.3419241988,0.2773166957\C,0,2.1796765645,-1.619
 112362,0.4923283762\C,0,3.1275586018,-0.5977148995,0.4109126109\C,0,2.
 7111486867,0.6990803978,0.118520037\C,0,1.3587261746,0.9762804089,-0.0

 Normal termination of Gaussian 16 at Thu Feb  3 03:35:42 2022.
 Gaussian 16:  ES64L-G16RevC.01  3-Jul-2019

 --------------------------------------------------------------------
 # M062X/def2tzvp int=(grid=ultrafine) nmr=giao guess=read geom=check
 --------------------------------------------------------------------

 -------
 Ac5.xyz
 -------
 Structure from the checkpoint file:  "Ac5_conf-1.chk"
 Charge =  0 Multiplicity = 1

                         Standard orientation:
 ---------------------------------------------------------------------
 Center     Atomic      Atomic             Coordinates (Angstroms)
 Number     Number       Type             X           Y           Z
 ---------------------------------------------------------------------
      1          8           0        2.323127   -1.560589    0.050605
      2          6           0        1.791757   -0.577552   -0.419767
      3          6           0        1.024661    0.485901    0.370789
      4          6           0       -0.471664    0.205025    0.150206
      5          6           0       -0.965050   -1.085694    0.392569
      6          6           0       -2.317978   -1.375830    0.237922
      7          6           0       -3.208501   -0.377167   -0.159574
      8          6           0       -2.729191    0.907696   -0.404439
      9          6           0       -1.371066    1.195578   -0.254086
     10          6           0        1.453192    1.884147   -0.107470
     11          6           0        1.361087    0.329312    1.865693
     12          8           0        1.794591   -0.327960   -1.750880
     13          1           0       -0.278916   -1.870869    0.695317
     14          1           0       -2.676733   -2.383028    0.427468
     15          1           0       -4.264144   -0.600340   -0.279435
     16          1           0       -3.410728    1.693148   -0.717186
     17          1           0       -1.022372    2.201195   -0.456184
     18          1           0        0.965348    2.655032    0.495256
     19          1           0        1.208383    2.046948   -1.158024
     20          1           0        2.533543    2.004080    0.013358
     21          1           0        1.129651   -0.674826    2.221833
     22          1           0        2.425129    0.511240    2.042100
     23          1           0        0.779182    1.050308    2.445993
     24          1           0        2.266429   -1.072979   -2.159354
 ---------------------------------------------------------------------

 SCF Done:  E(RM062X) =  -538.739300355     A.U. after    1 cycles

      1  O    Isotropic =  -159.7376   Anisotropy =   638.3574

      2  C    Isotropic =   -13.3522   Anisotropy =   128.4153

      3  C    Isotropic =   134.4955   Anisotropy =    20.7522

      4  C    Isotropic =    15.9071   Anisotropy =   230.7499

      5  C    Isotropic =    35.7347   Anisotropy =   213.2772

      6  C    Isotropic =    34.7420   Anisotropy =   215.9737

      7  C    Isotropic =    36.8909   Anisotropy =   216.7220

      8  C    Isotropic =    34.8342   Anisotropy =   214.9371

      9  C    Isotropic =    40.4152   Anisotropy =   211.1456

     10  C    Isotropic =   161.2052   Anisotropy =    27.1431

     11  C    Isotropic =   153.6696   Anisotropy =    37.5597

     12  O    Isotropic =   106.8056   Anisotropy =   213.1040

     13  H    Isotropic =    23.5413   Anisotropy =    11.5894

     14  H    Isotropic =    23.7491   Anisotropy =     6.5472

     15  H    Isotropic =    23.8630   Anisotropy =     5.5237

     16  H    Isotropic =    23.7213   Anisotropy =     6.5076

     17  H    Isotropic =    23.6655   Anisotropy =    11.6538

     18  H    Isotropic =    30.3384   Anisotropy =     8.2202

     19  H    Isotropic =    29.7454   Anisotropy =     8.0428

     20  H    Isotropic =    30.5395   Anisotropy =     8.5909

     21  H    Isotropic =    29.7880   Anisotropy =     7.7319

     22  H    Isotropic =    30.4706   Anisotropy =     9.3683

     23  H    Isotropic =    31.0821   Anisotropy =     7.2387

     24  H    Isotropic =    25.9112   Anisotropy =    11.9338

 The electronic state is 1-A.
 Alpha  occ. eigenvalues --  -19.67655 -19.62375 -10.68017 -10.57655 -10.55996
 Alpha  occ. eigenvalues --  -10.54681 -10.54631 -10.54595 -10.54481 -10.54431
 Alpha  occ. eigenvalues --  -10.53798 -10.53093  -1.23834  -1.14200  -0.97257
 Alpha  occ. eigenvalues --   -0.92292  -0.84638  -0.83416  -0.78783  -0.75732
 Alpha  occ. eigenvalues --   -0.69645  -0.68923  -0.64396  -0.60320  -0.58446
 Alpha  occ. eigenvalues --   -0.56851  -0.54571  -0.52286  -0.52092  -0.50703
 Alpha  occ. eigenvalues --   -0.49775  -0.49037  -0.47361  -0.45864  -0.44320
 Alpha  occ. eigenvalues --   -0.44021  -0.43025  -0.41888  -0.40350  -0.39743
 Alpha  occ. eigenvalues --   -0.39196  -0.35658  -0.31145  -0.30375
 Alpha virt. eigenvalues --    0.01260   0.01500   0.04894   0.06338   0.07824
 Alpha virt. eigenvalues --    0.09045   0.10139   0.11651   0.11832   0.12433
 Alpha virt. eigenvalues --    0.13822   0.14612   0.15153   0.15955   0.17070

 Mulliken charges:
               1
     1  O   -0.325871
     2  C    0.344922
     3  C   -0.079112
     4  C    0.130364
     5  C   -0.225526
     6  C   -0.152259
     7  C   -0.153564
     8  C   -0.146380
     9  C   -0.181388
    10  C   -0.526708
    11  C   -0.400575
    12  O   -0.409042
    13  H    0.192737
    14  H    0.146051
    15  H    0.144000
    16  H    0.142876
    17  H    0.165590
    18  H    0.165865
    19  H    0.189116
    20  H    0.165116
    21  H    0.165898
    22  H    0.154046
    23  H    0.157409
    24  H    0.336435
 Sum of Mulliken charges =  -0.00000

 Dipole moment (field-independent basis, Debye):
    X=             -0.7360    Y=              1.2505    Z=             -0.6701  Tot=              1.5983
 Quadrupole moment (field-independent basis, Debye-Ang):
   XX=            -69.0590   YY=            -69.5608   ZZ=            -71.7813
   XY=              3.7286   XZ=             -2.1969   YZ=              1.9758

 1\1\GINC-NOTCH075\SP\RM062X\def2TZVP\C10H12O2\U6032257\03-Feb-2022\0\\
 # M062X/def2tzvp int=(grid=ultrafine) nmr=giao guess=read geom=check\\
 Ac5.xyz\\0,1\O,0,-2.4481089866,-1.4464220055,0.8958797571\C,0,-1.85523
 43801,-0.3888522352,0.8993611095\C,0,-1.0924705183,0.2097579592,-0.285
 6307362\C,0,0.40192232,-0.0400305762,-0.0192987835\C,0,0.8322917991,-1
 .3419241988,0.2773166957\C,0,2.1796765645,-1.619112362,0.4923283762\C,
 0,3.1275586018,-0.5977148995,0.4109126109\C,0,2.7111486867,0.699080397
 8,0.118520037\C,0,1.3587261746,0.9762804089,-0.0914770069\C,0,-1.44127

 Normal termination of Gaussian 16 at Thu Feb  3 03:37:01 2022.
