 Gaussian 16, Revision C.01,

 ----------------------------------------------------------------------
 # B3LYP/6-31G(d,p) empiricaldispersion=GD3BJ int=(grid=ultrafine) opt
 freq=noraman
 ----------------------------------------------------------------------

 -------
 Ac5.xyz
 -------
 Symbolic Z-matrix:
 Charge =  0 Multiplicity = 1

 SCF Done:  E(RB3LYP) =  -538.817540432     A.U. after   15 cycles
 SCF Done:  E(RB3LYP) =  -538.821339074     A.U. after   12 cycles
 SCF Done:  E(RB3LYP) =  -538.821178146     A.U. after   12 cycles
 SCF Done:  E(RB3LYP) =  -538.821542598     A.U. after   12 cycles
 SCF Done:  E(RB3LYP) =  -538.821898935     A.U. after   11 cycles
 SCF Done:  E(RB3LYP) =  -538.821961403     A.U. after   12 cycles
 SCF Done:  E(RB3LYP) =  -538.821960381     A.U. after   12 cycles
 SCF Done:  E(RB3LYP) =  -538.822002269     A.U. after   11 cycles
 SCF Done:  E(RB3LYP) =  -538.822003046     A.U. after    8 cycles
 SCF Done:  E(RB3LYP) =  -538.822003155     A.U. after    7 cycles
 Optimization completed.
    -- Stationary point found.
 Normal termination of Gaussian 16 at Thu Feb  3 03:38:38 2022.

 ----------------------------------------------------------------------
 #N Geom=AllCheck Guess=TCheck SCRF=Check GenChk RB3LYP/6-31G(d,p) Freq
 ----------------------------------------------------------------------

 Structure from the checkpoint file:  "Ac5_conf-2.chk"
 -------
 Ac5.xyz
 -------
 Charge =  0 Multiplicity = 1

 SCF Done:  E(RB3LYP) =  -538.822003155     A.U. after    1 cycles

                      1                      2                      3
                      A                      A                      A
 Frequencies --     37.6403                57.2637               109.3258
 Red. masses --      4.7106                 7.7360                 4.4310
 Frc consts  --      0.0039                 0.0149                 0.0312
 IR Inten    --      0.6435                 0.6386                 0.1808

                      4                      5                      6
                      A                      A                      A
 Frequencies --    192.7522               235.8133               262.4270
 Red. masses --      3.5933                 1.3228                 3.0630
 Frc consts  --      0.0787                 0.0433                 0.1243
 IR Inten    --      0.3821                 0.0197                 0.2681

                      7                      8                      9
                      A                      A                      A
 Frequencies --    271.8817               316.7231               334.5049
 Red. masses --      2.1116                 1.3889                 2.0583
 Frc consts  --      0.0920                 0.0821                 0.1357
 IR Inten    --      0.4092                 0.1813                 0.2930

                     10                     11                     12
                      A                      A                      A
 Frequencies --    359.2433               367.6038               417.4909
 Red. masses --      2.8711                 3.6792                 2.9690
 Frc consts  --      0.2183                 0.2929                 0.3049
 IR Inten    --      1.7780                 2.7281                 0.0243

                     13                     14                     15
                      A                      A                      A
 Frequencies --    478.3431               506.5483               534.7969
 Red. masses --      3.2574                 3.8848                 3.7168
 Frc consts  --      0.4391                 0.5873                 0.6263
 IR Inten    --      3.5270                 1.1655                11.7669

                     16                     17                     18
                      A                      A                      A
 Frequencies --    613.2224               636.2961               639.1699
 Red. masses --      2.6930                 3.3197                 1.9110
 Frc consts  --      0.5967                 0.7919                 0.4600
 IR Inten    --     43.0651                21.3402                63.1932

                     19                     20                     21
                      A                      A                      A
 Frequencies --    715.5981               719.9997               756.7998
 Red. masses --      1.8317                 4.4308                 2.4285
 Frc consts  --      0.5527                 1.3533                 0.8195
 IR Inten    --     28.9288                12.7177                18.5860

                     22                     23                     24
                      A                      A                      A
 Frequencies --    795.4327               829.1079               860.9310
 Red. masses --      2.8688                 2.5800                 1.2467
 Frc consts  --      1.0694                 1.0449                 0.5445
 IR Inten    --     16.0992                19.8942                 0.2204

                     25                     26                     27
                      A                      A                      A
 Frequencies --    928.6313               956.9776               967.3854
 Red. masses --      1.4828                 1.7838                 1.6774
 Frc consts  --      0.7534                 0.9625                 0.9249
 IR Inten    --      0.9760                 3.2699                 1.0546

                     28                     29                     30
                      A                      A                      A
 Frequencies --    978.4757               999.9773              1021.0915
 Red. masses --      1.3527                 1.2552                 5.9335
 Frc consts  --      0.7630                 0.7395                 3.6449
 IR Inten    --      0.3901                 0.3554                 1.3599

                     31                     32                     33
                      A                      A                      A
 Frequencies --   1036.9223              1061.9817              1110.8205
 Red. masses --      1.3031                 2.5474                 1.8339
 Frc consts  --      0.8255                 1.6927                 1.3333
 IR Inten    --      6.1797                 7.7882                38.1206

                     34                     35                     36
                      A                      A                      A
 Frequencies --   1131.0344              1152.6460              1190.8536
 Red. masses --      2.0279                 2.6004                 1.0920
 Frc consts  --      1.5284                 2.0355                 0.9124
 IR Inten    --     17.5265               150.3432                 0.0384

                     37                     38                     39
                      A                      A                      A
 Frequencies --   1204.1086              1223.7601              1234.7364
 Red. masses --      3.1919                 1.1422                 2.1055
 Frc consts  --      2.7267                 1.0079                 1.8913
 IR Inten    --     15.1337                 1.9136                37.5442

                     40                     41                     42
                      A                      A                      A
 Frequencies --   1263.8728              1342.9933              1361.8949
 Red. masses --      2.9768                 2.5385                 3.2020
 Frc consts  --      2.8016                 2.6976                 3.4991
 IR Inten    --     11.5697                 4.6884                16.8392

                     43                     44                     45
                      A                      A                      A
 Frequencies --   1373.2354              1415.4042              1437.8940
 Red. masses --      1.6373                 1.2359                 1.2292
 Frc consts  --      1.8191                 1.4588                 1.4974
 IR Inten    --      5.3463                 6.2654                 6.6978

                     46                     47                     48
                      A                      A                      A
 Frequencies --   1489.6486              1502.1278              1504.0611
 Red. masses --      1.9881                 1.1223                 1.0547
 Frc consts  --      2.5993                 1.4920                 1.4057
 IR Inten    --      5.5812                 1.6134                 3.3357

                     49                     50                     51
                      A                      A                      A
 Frequencies --   1517.0973              1527.6710              1542.9522
 Red. masses --      1.0501                 1.0658                 2.1013
 Frc consts  --      1.4240                 1.4655                 2.9474
 IR Inten    --      4.2352                14.7192                17.4966

                     52                     53                     54
                      A                      A                      A
 Frequencies --   1640.9205              1662.5972              1836.4776
 Red. masses --      5.5179                 5.5267                10.0868
 Frc consts  --      8.7538                 9.0010                20.0436
 IR Inten    --      1.2889                 6.1173               250.5568

                     55                     56                     57
                      A                      A                      A
 Frequencies --   3056.3010              3064.3004              3124.9121
 Red. masses --      1.0374                 1.0365                 1.1031
 Frc consts  --      5.7095                 5.7343                 6.3468
 IR Inten    --     18.1046                22.1584                 8.5184

                     58                     59                     60
                      A                      A                      A
 Frequencies --   3133.1024              3159.1416              3163.0626
 Red. masses --      1.1027                 1.1022                 1.1000
 Frc consts  --      6.3774                 6.4811                 6.4842
 IR Inten    --     43.0690                11.3667                14.8450

                     61                     62                     63
                      A                      A                      A
 Frequencies --   3180.4034              3189.6908              3203.8545
 Red. masses --      1.0851                 1.0897                 1.0946
 Frc consts  --      6.4668                 6.5318                 6.6198
 IR Inten    --      0.2314                14.1140                27.4168

                     64                     65                     66
                      A                      A                      A
 Frequencies --   3214.9755              3227.0257              3747.8303
 Red. masses --      1.0937                 1.0918                 1.0641
 Frc consts  --      6.6607                 6.6989                 8.8063
 IR Inten    --      9.8263                 8.3119                54.1999

 - Thermochemistry -
 -------------------
 Temperature   298.150 Kelvin.  Pressure   1.00000 Atm.
 Atom     1 has atomic number  8 and mass  15.99491

 Molecular mass:   164.08373 amu.
 Principal axes and moments of inertia in atomic units:
                           1         2         3
     Eigenvalues --  1136.577012616.872532905.11376
           X            0.99964  -0.01501  -0.02204
           Y            0.01484   0.99986  -0.00768
           Z            0.02215   0.00735   0.99973
 This molecule is an asymmetric top.
 Rotational symmetry number  1.
 Warning -- assumption of classical behavior for rotation
           may cause significant error
 Rotational temperatures (Kelvin)      0.07621     0.03310     0.02981
 Rotational constants (GHZ):           1.58787     0.68966     0.62123
 Zero-point vibrational energy     527145.0 (Joules/Mol)
                                  125.99069 (Kcal/Mol)
 Warning -- explicit consideration of  16 degrees of freedom as
           vibrations may cause significant error
 Vibrational temperatures:     54.16    82.39   157.30   277.33   339.28
          (Kelvin)            377.57   391.18   455.69   481.28   516.87
                              528.90   600.68   688.23   728.81   769.45
                              882.29   915.49   919.62  1029.59  1035.92
                             1088.87  1144.45  1192.90  1238.69  1336.09
                             1376.88  1391.85  1407.81  1438.74  1469.12
                             1491.90  1527.95  1598.22  1627.31  1658.40
                             1713.37  1732.44  1760.72  1776.51  1818.43
                             1932.27  1959.46  1975.78  2036.45  2068.81
                             2143.27  2161.23  2164.01  2182.76  2197.98
                             2219.96  2360.92  2392.11  2642.28  4397.34
                             4408.84  4496.05  4507.84  4545.30  4550.94
                             4575.89  4589.25  4609.63  4625.63  4642.97
                             5392.29

 Zero-point correction=                           0.200779 (Hartree/Particle)
 Thermal correction to Energy=                    0.211910
 Thermal correction to Enthalpy=                  0.212854
 Thermal correction to Gibbs Free Energy=         0.163578
 Sum of electronic and zero-point Energies=           -538.621224
 Sum of electronic and thermal Energies=              -538.610094
 Sum of electronic and thermal Enthalpies=            -538.609149
 Sum of electronic and thermal Free Energies=         -538.658425

                     E (Thermal)             CV                S
                      KCal/Mol        Cal/Mol-Kelvin    Cal/Mol-Kelvin
 Total                  132.975             43.390            103.710
 Electronic               0.000              0.000              0.000
 Translational            0.889              2.981             41.194
 Rotational               0.889              2.981             30.536
 Vibrational            131.198             37.429             31.979
 Vibration     1          0.594              1.982              5.380
 Vibration     2          0.596              1.975              4.549
 Vibration     3          0.606              1.942              3.281
 Vibration     4          0.635              1.850              2.201
 Vibration     5          0.655              1.786              1.834
 Vibration     6          0.670              1.742              1.646
 Vibration     7          0.675              1.725              1.584
 Vibration     8          0.704              1.642              1.327
 Vibration     9          0.716              1.607              1.238
 Vibration    10          0.734              1.556              1.125
 Vibration    11          0.740              1.539              1.090
 Vibration    12          0.781              1.432              0.901
 Vibration    13          0.835              1.298              0.715
 Vibration    14          0.862              1.235              0.642
 Vibration    15          0.890              1.173              0.577
 Vibration    16          0.973              1.004              0.427

 Optimization completed.
    -- Stationary point found.
 Normal termination of Gaussian 16 at Thu Feb  3 03:39:41 2022.

 ----------------------------------------------------------------------
 # M062X/def2tzvp int=(grid=ultrafine) pop=nbo7 polar prop=efg volume g
 uess=read geom=check
 ----------------------------------------------------------------------

 -------
 Ac5.xyz
 -------
 Structure from the checkpoint file:  "Ac5_conf-2.chk"
 Charge =  0 Multiplicity = 1

 SCF Done:  E(RM062X) =  -538.737722210     A.U. after   12 cycles

  Exact polarizability:     141.365      -2.657     120.333      -5.180      -6.564      91.813
 Approx polarizability:     164.567      -1.066     161.441      -5.315     -13.384     121.508

 Summary of Natural Population Analysis:

                                     Natural Population
             Natural    ---------------------------------------------
  Atom No    Charge        Core      Valence    Rydberg      Total
 --------------------------------------------------------------------
    O  1   -0.59344      2.00000     6.56699    0.02645     8.59344
    C  2    0.81176      1.99999     3.14867    0.03958     5.18824
    C  3   -0.16690      1.99999     4.14954    0.01737     6.16690
    C  4   -0.00632      1.99999     3.98688    0.01944     6.00632
    C  5   -0.21668      1.99999     4.20041    0.01628     6.21668
    C  6   -0.20382      1.99999     4.18738    0.01645     6.20382
    C  7   -0.21349      1.99999     4.19715    0.01635     6.21349
    C  8   -0.20266      1.99999     4.18623    0.01644     6.20266
    C  9   -0.21512      1.99999     4.19892    0.01621     6.21512
    C 10   -0.58998      1.99999     4.57995    0.01004     6.58998
    C 11   -0.59945      1.99999     4.58850    0.01096     6.59945
    O 12   -0.69753      2.00000     6.67604    0.02149     8.69753
    H 13    0.22393      0.00000     0.77466    0.00141     0.77607
    H 14    0.21478      0.00000     0.78403    0.00119     0.78522
    H 15    0.21541      0.00000     0.78347    0.00112     0.78459
    H 16    0.21479      0.00000     0.78403    0.00118     0.78521
    H 17    0.21789      0.00000     0.78073    0.00139     0.78211
    H 18    0.21514      0.00000     0.78363    0.00123     0.78486
    H 19    0.22200      0.00000     0.77689    0.00111     0.77800
    H 20    0.21215      0.00000     0.78668    0.00116     0.78785
    H 21    0.23151      0.00000     0.76737    0.00112     0.76849
    H 22    0.21835      0.00000     0.78058    0.00108     0.78165
    H 23    0.20974      0.00000     0.78906    0.00120     0.79026
    H 24    0.49793      0.00000     0.49850    0.00356     0.50207
 ====================================================================
 * Total *  0.00000     23.99991    63.75629    0.24380    88.00000

 1\1\GINC-NOTCH075\SP\RM062X\def2TZVP\C10H12O2\U6032257\03-Feb-2022\0\\
 # M062X/def2tzvp int=(grid=ultrafine) pop=nbo7 polar prop=efg volume g
 uess=read geom=check\\Ac5.xyz\\0,1\O,0,-2.2924472256,-1.2121581021,1.4
 075962079\C,0,-1.8202864226,-0.1627921521,1.0314734184\C,0,-1.10841307
 99,0.0560815428,-0.3098448862\C,0,0.3932718768,-0.1818954842,-0.052802
 3283\C,0,1.0868366181,0.6425435983,0.8467731011\C,0,2.4473477706,0.461
 8539057,1.0826860871\C,0,3.1472940958,-0.5494828508,0.4235198323\C,0,2
 .4689345373,-1.3786098296,-0.466508202\C,0,1.1041417466,-1.1988424758,

 Normal termination of Gaussian 16 at Thu Feb  3 03:43:08 2022.
 Gaussian 16:  ES64L-G16RevC.01  3-Jul-2019

 --------------------------------------------------------------------
 # M062X/def2tzvp int=(grid=ultrafine) nmr=giao guess=read geom=check
 --------------------------------------------------------------------

 -------
 Ac5.xyz
 -------
 Structure from the checkpoint file:  "Ac5_conf-2.chk"
 Charge =  0 Multiplicity = 1

                         Standard orientation:
 ---------------------------------------------------------------------
 Center     Atomic      Atomic             Coordinates (Angstroms)
 Number     Number       Type             X           Y           Z
 ---------------------------------------------------------------------
      1          8           0       -2.137222   -0.054351   -1.709588
      2          6           0       -1.783198   -0.410740   -0.608122
      3          6           0       -1.022655    0.459637    0.400751
      4          6           0        0.477976    0.196690    0.162579
      5          6           0        0.999812   -1.092203    0.353391
      6          6           0        2.354621   -1.352882    0.164097
      7          6           0        3.220772   -0.328953   -0.221362
      8          6           0        2.713989    0.952958   -0.420479
      9          6           0        1.354845    1.211901   -0.234253
     10          6           0       -1.393194    0.092076    1.853328
     11          6           0       -1.421984    1.918148    0.133322
     12          8           0       -2.014085   -1.671229   -0.158068
     13          1           0        0.336774   -1.901076    0.639265
     14          1           0        2.733537   -2.359011    0.316905
     15          1           0        4.277395   -0.530294   -0.368222
     16          1           0        3.374285    1.759358   -0.725202
     17          1           0        0.987065    2.216441   -0.401909
     18          1           0       -0.842851    0.742627    2.538627
     19          1           0       -1.147363   -0.942864    2.090102
     20          1           0       -2.464294    0.235158    2.026136
     21          1           0       -1.223144    2.203249   -0.900333
     22          1           0       -2.492709    2.046104    0.312424
     23          1           0       -0.883450    2.589837    0.806810
     24          1           0       -2.450692   -2.134680   -0.892866
 ---------------------------------------------------------------------

 SCF Done:  E(RM062X) =  -538.737722210     A.U. after    1 cycles

      1  O    Isotropic =  -154.7634   Anisotropy =   634.9309

      2  C    Isotropic =   -11.2553   Anisotropy =   121.6032

      3  C    Isotropic =   134.8704   Anisotropy =    19.1840

      4  C    Isotropic =    16.7390   Anisotropy =   225.5149

      5  C    Isotropic =    34.9198   Anisotropy =   214.3993

      6  C    Isotropic =    35.1103   Anisotropy =   214.7797

      7  C    Isotropic =    36.7419   Anisotropy =   217.3735

      8  C    Isotropic =    34.9649   Anisotropy =   214.7301

      9  C    Isotropic =    39.0940   Anisotropy =   211.2359

     10  C    Isotropic =   154.5831   Anisotropy =    38.9618

     11  C    Isotropic =   160.0610   Anisotropy =    23.7508

     12  O    Isotropic =   104.3560   Anisotropy =   207.1988

     13  H    Isotropic =    23.0650   Anisotropy =    11.3671

     14  H    Isotropic =    23.7183   Anisotropy =     6.6588

     15  H    Isotropic =    23.8607   Anisotropy =     5.5673

     16  H    Isotropic =    23.7372   Anisotropy =     6.5437

     17  H    Isotropic =    23.6627   Anisotropy =    12.0403

     18  H    Isotropic =    30.8545   Anisotropy =     7.5164

     19  H    Isotropic =    29.6339   Anisotropy =     7.5475

     20  H    Isotropic =    30.4362   Anisotropy =     9.3166

     21  H    Isotropic =    29.4824   Anisotropy =     8.3050

     22  H    Isotropic =    30.5977   Anisotropy =     8.3272

     23  H    Isotropic =    30.6209   Anisotropy =     8.0741

     24  H    Isotropic =    25.6594   Anisotropy =    11.6244

 The electronic state is 1-A.
 Alpha  occ. eigenvalues --  -19.67877 -19.62211 -10.68041 -10.57769 -10.56070
 Alpha  occ. eigenvalues --  -10.54635 -10.54619 -10.54547 -10.54480 -10.54445
 Alpha  occ. eigenvalues --  -10.53612 -10.53225  -1.23883  -1.14196  -0.97213
 Alpha  occ. eigenvalues --   -0.92263  -0.84625  -0.83411  -0.78800  -0.75550
 Alpha  occ. eigenvalues --   -0.69873  -0.68835  -0.64447  -0.60422  -0.58570
 Alpha  occ. eigenvalues --   -0.56617  -0.54554  -0.52640  -0.52102  -0.50749
 Alpha  occ. eigenvalues --   -0.49838  -0.48999  -0.46825  -0.45931  -0.44232
 Alpha  occ. eigenvalues --   -0.44095  -0.43380  -0.41833  -0.40772  -0.39219
 Alpha  occ. eigenvalues --   -0.38885  -0.35854  -0.31112  -0.30391
 Alpha virt. eigenvalues --    0.00976   0.01616   0.05332   0.06123   0.07863
 Alpha virt. eigenvalues --    0.08902   0.10436   0.11408   0.11784   0.12222
 Alpha virt. eigenvalues --    0.13908   0.14003   0.15033   0.16344   0.17579

 Mulliken charges:
               1
     1  O   -0.326125
     2  C    0.361499
     3  C   -0.087912
     4  C    0.119074
     5  C   -0.208804
     6  C   -0.152299
     7  C   -0.152629
     8  C   -0.146227
     9  C   -0.179985
    10  C   -0.402203
    11  C   -0.519243
    12  O   -0.419295
    13  H    0.182109
    14  H    0.144173
    15  H    0.143884
    16  H    0.143038
    17  H    0.168764
    18  H    0.159067
    19  H    0.161441
    20  H    0.154630
    21  H    0.189847
    22  H    0.162265
    23  H    0.167832
    24  H    0.337100
 Sum of Mulliken charges =  -0.00000

 Dipole moment (field-independent basis, Debye):
    X=              0.5168    Y=             -0.5441    Z=              1.4346  Tot=              1.6190
 Quadrupole moment (field-independent basis, Debye-Ang):
   XX=            -67.5798   YY=            -64.3292   ZZ=            -78.1315
   XY=              2.4597   XZ=             -4.3089   YZ=              1.7656

 1\1\GINC-NOTCH075\SP\RM062X\def2TZVP\C10H12O2\U6032257\03-Feb-2022\0\\
 # M062X/def2tzvp int=(grid=ultrafine) nmr=giao guess=read geom=check\\
 Ac5.xyz\\0,1\O,0,-2.2924472256,-1.2121581021,1.4075962079\C,0,-1.82028
 64226,-0.1627921521,1.0314734184\C,0,-1.1084130799,0.0560815428,-0.309
 8448862\C,0,0.3932718768,-0.1818954842,-0.0528023283\C,0,1.0868366181,
 0.6425435983,0.8467731011\C,0,2.4473477706,0.4618539057,1.0826860871\C
 ,0,3.1472940958,-0.5494828508,0.4235198323\C,0,2.4689345373,-1.3786098
 296,-0.466508202\C,0,1.1041417466,-1.1988424758,-0.6989523469\C,0,-1.3

 Normal termination of Gaussian 16 at Thu Feb  3 03:44:27 2022.
