 Gaussian 16, Revision C.01,

 ----------------------------------------------------------------------
 # B3LYP/6-31G(d,p) empiricaldispersion=GD3BJ int=(grid=ultrafine) opt
 freq=noraman
 ----------------------------------------------------------------------

 -------
 Ac5.xyz
 -------
 Symbolic Z-matrix:
 Charge =  0 Multiplicity = 1

 SCF Done:  E(RB3LYP) =  -538.816155006     A.U. after   15 cycles
 SCF Done:  E(RB3LYP) =  -538.819592524     A.U. after   12 cycles
 SCF Done:  E(RB3LYP) =  -538.819875688     A.U. after   12 cycles
 SCF Done:  E(RB3LYP) =  -538.819338298     A.U. after   13 cycles
 SCF Done:  E(RB3LYP) =  -538.819891666     A.U. after   12 cycles
 SCF Done:  E(RB3LYP) =  -538.819969662     A.U. after   11 cycles
 SCF Done:  E(RB3LYP) =  -538.819973326     A.U. after   10 cycles
 SCF Done:  E(RB3LYP) =  -538.819977933     A.U. after   10 cycles
 SCF Done:  E(RB3LYP) =  -538.819982048     A.U. after   11 cycles
 SCF Done:  E(RB3LYP) =  -538.819983832     A.U. after   10 cycles
 SCF Done:  E(RB3LYP) =  -538.819984186     A.U. after    8 cycles
 SCF Done:  E(RB3LYP) =  -538.819984208     A.U. after    7 cycles
 Optimization completed.
    -- Stationary point found.
 Normal termination of Gaussian 16 at Thu Feb  3 03:46:26 2022.

 ----------------------------------------------------------------------
 #N Geom=AllCheck Guess=TCheck SCRF=Check GenChk RB3LYP/6-31G(d,p) Freq
 ----------------------------------------------------------------------

 Structure from the checkpoint file:  "Ac5_conf-3.chk"
 -------
 Ac5.xyz
 -------
 Charge =  0 Multiplicity = 1

 SCF Done:  E(RB3LYP) =  -538.819984208     A.U. after    1 cycles

                      1                      2                      3
                      A                      A                      A
 Frequencies --     24.4084                50.0282               108.6014
 Red. masses --      7.9627                 4.2374                 4.5783
 Frc consts  --      0.0028                 0.0062                 0.0318
 IR Inten    --      0.6705                 0.1256                 1.2472

                      4                      5                      6
                      A                      A                      A
 Frequencies --    187.3903               228.3944               267.5590
 Red. masses --      3.9132                 1.6538                 1.9909
 Frc consts  --      0.0810                 0.0508                 0.0840
 IR Inten    --      0.6288                 0.0766                 0.4911

                      7                      8                      9
                      A                      A                      A
 Frequencies --    279.6861               316.0996               331.9291
 Red. masses --      2.2158                 1.2197                 2.1660
 Frc consts  --      0.1021                 0.0718                 0.1406
 IR Inten    --      0.0286                 0.0408                 0.4356

                     10                     11                     12
                      A                      A                      A
 Frequencies --    333.0162               373.7723               408.7778
 Red. masses --      3.2221                 4.4525                 3.8422
 Frc consts  --      0.2105                 0.3665                 0.3783
 IR Inten    --      2.0531                 3.1877                 1.7359

                     13                     14                     15
                      A                      A                      A
 Frequencies --    416.6201               517.7632               590.2440
 Red. masses --      2.9730                 3.5467                 3.7180
 Frc consts  --      0.3040                 0.5602                 0.7632
 IR Inten    --      0.0198                 1.3743                15.3275

                     16                     17                     18
                      A                      A                      A
 Frequencies --    616.5424               619.6133               637.7675
 Red. masses --      3.5456                 1.2379                 6.3072
 Frc consts  --      0.7941                 0.2800                 1.5115
 IR Inten    --     42.3029                82.7653                 1.3863

                     19                     20                     21
                      A                      A                      A
 Frequencies --    713.4389               719.1239               777.2240
 Red. masses --      1.7418                 4.1636                 2.0793
 Frc consts  --      0.5224                 1.2686                 0.7400
 IR Inten    --     30.6471                 9.4052                15.4638

                     22                     23                     24
                      A                      A                      A
 Frequencies --    784.1012               835.6934               854.8217
 Red. masses --      4.8225                 2.3844                 1.2508
 Frc consts  --      1.7469                 0.9811                 0.5385
 IR Inten    --     23.5304                 9.0886                 0.0032

                     25                     26                     27
                      A                      A                      A
 Frequencies --    921.5181               951.5044               961.2290
 Red. masses --      1.4767                 2.1010                 1.5308
 Frc consts  --      0.7389                 1.1207                 0.8333
 IR Inten    --      0.2477                 7.6039                 1.2972

                     28                     29                     30
                      A                      A                      A
 Frequencies --    970.4794               995.0286              1021.6828
 Red. masses --      1.3616                 1.2494                 5.7222
 Frc consts  --      0.7556                 0.7288                 3.5192
 IR Inten    --      0.0697                 0.1112                 1.0659

                     31                     32                     33
                      A                      A                      A
 Frequencies --   1041.2590              1061.2497              1108.0456
 Red. masses --      1.3307                 2.4628                 1.9267
 Frc consts  --      0.8501                 1.6342                 1.3937
 IR Inten    --      1.3422                11.1249                71.9359

                     34                     35                     36
                      A                      A                      A
 Frequencies --   1124.2281              1157.7829              1173.0995
 Red. masses --      2.0163                 2.7037                 3.1245
 Frc consts  --      1.5015                 2.1353                 2.5334
 IR Inten    --    107.1806                90.8137                37.2453

                     37                     38                     39
                      A                      A                      A
 Frequencies --   1190.2316              1222.2317              1223.3415
 Red. masses --      1.0911                 1.1662                 1.8620
 Frc consts  --      0.9107                 1.0265                 1.6418
 IR Inten    --      0.0619                 3.5300                30.5266

                     40                     41                     42
                      A                      A                      A
 Frequencies --   1296.8242              1347.1841              1358.2266
 Red. masses --      2.8484                 2.6780                 2.5696
 Frc consts  --      2.8224                 2.8636                 2.7930
 IR Inten    --      2.3490                 7.2780                20.8215

                     43                     44                     45
                      A                      A                      A
 Frequencies --   1370.4544              1407.8110              1435.7568
 Red. masses --      1.8303                 1.2059                 1.2477
 Frc consts  --      2.0254                 1.4082                 1.5154
 IR Inten    --      0.0492                 5.0704                 6.1573

                     46                     47                     48
                      A                      A                      A
 Frequencies --   1490.1607              1502.9697              1505.5492
 Red. masses --      2.0499                 1.1067                 1.0493
 Frc consts  --      2.6820                 1.4729                 1.4013
 IR Inten    --      6.7612                 0.5985                 3.8801

                     49                     50                     51
                      A                      A                      A
 Frequencies --   1521.9095              1528.9099              1546.3974
 Red. masses --      1.0531                 1.0694                 2.1734
 Frc consts  --      1.4371                 1.4729                 3.0622
 IR Inten    --      9.3361                12.0853                11.7388

                     52                     53                     54
                      A                      A                      A
 Frequencies --   1643.5676              1667.4959              1839.7012
 Red. masses --      5.5647                 5.6140                10.3312
 Frc consts  --      8.8566                 9.1972                20.6014
 IR Inten    --      0.9026                 2.4960               238.7714

                     55                     56                     57
                      A                      A                      A
 Frequencies --   3057.1888              3060.6678              3132.5069
 Red. masses --      1.0344                 1.0351                 1.1036
 Frc consts  --      5.6964                 5.7130                 6.3802
 IR Inten    --     17.7129                12.7137                10.5544

                     58                     59                     60
                      A                      A                      A
 Frequencies --   3134.5498              3145.6208              3150.1525
 Red. masses --      1.1028                 1.1031                 1.1028
 Frc consts  --      6.3840                 6.4311                 6.4479
 IR Inten    --     23.3943                 3.7334                37.8205

                     61                     62                     63
                      A                      A                      A
 Frequencies --   3178.9563              3187.1358              3197.7681
 Red. masses --      1.0847                 1.0882                 1.0926
 Frc consts  --      6.4583                 6.5129                 6.5825
 IR Inten    --      1.2895                 5.9456                31.8983

                     64                     65                     66
                      A                      A                      A
 Frequencies --   3207.0392              3219.0381              3755.0165
 Red. masses --      1.0967                 1.0928                 1.0642
 Frc consts  --      6.6461                 6.6716                 8.8412
 IR Inten    --     23.9341                10.6672                56.3760

 - Thermochemistry -
 -------------------
 Temperature   298.150 Kelvin.  Pressure   1.00000 Atm.
 Atom     1 has atomic number  8 and mass  15.99491

 Molecular mass:   164.08373 amu.
 Principal axes and moments of inertia in atomic units:
                           1         2         3
     Eigenvalues --   997.010052763.271743081.51265
           X            0.99980  -0.01796  -0.00852
           Y            0.01742   0.99807  -0.05958
           Z            0.00958   0.05942   0.99819
 This molecule is an asymmetric top.
 Rotational symmetry number  1.
 Warning -- assumption of classical behavior for rotation
           may cause significant error
 Rotational temperatures (Kelvin)      0.08687     0.03134     0.02811
 Rotational constants (GHZ):           1.81015     0.65312     0.58567
 Zero-point vibrational energy     526381.3 (Joules/Mol)
                                  125.80816 (Kcal/Mol)
 Warning -- explicit consideration of  17 degrees of freedom as
           vibrations may cause significant error
 Vibrational temperatures:     35.12    71.98   156.25   269.61   328.61
          (Kelvin)            384.96   402.41   454.80   477.57   479.14
                              537.78   588.14   599.42   744.95   849.23
                              887.07   891.49   917.61  1026.48  1034.66
                             1118.25  1128.15  1202.38  1229.90  1325.86
                             1369.00  1382.99  1396.30  1431.62  1469.97
                             1498.14  1526.90  1594.23  1617.51  1665.79
                             1687.83  1712.48  1758.52  1760.12  1865.84
                             1938.30  1954.19  1971.78  2025.53  2065.73
                             2144.01  2162.44  2166.15  2189.69  2199.76
                             2224.92  2364.73  2399.15  2646.92  4398.61
                             4403.62  4506.98  4509.92  4525.85  4532.37
                             4573.81  4585.58  4600.88  4614.21  4631.48
                             5402.63

 Zero-point correction=                           0.200488 (Hartree/Particle)
 Thermal correction to Energy=                    0.211723
 Thermal correction to Enthalpy=                  0.212667
 Thermal correction to Gibbs Free Energy=         0.162738
 Sum of electronic and zero-point Energies=           -538.619496
 Sum of electronic and thermal Energies=              -538.608261
 Sum of electronic and thermal Enthalpies=            -538.607317
 Sum of electronic and thermal Free Energies=         -538.657246

                     E (Thermal)             CV                S
                      KCal/Mol        Cal/Mol-Kelvin    Cal/Mol-Kelvin
 Total                  132.858             43.518            105.085
 Electronic               0.000              0.000              0.000
 Translational            0.889              2.981             41.194
 Rotational               0.889              2.981             30.519
 Vibrational            131.081             37.556             33.372
 Vibration     1          0.593              1.985              6.239
 Vibration     2          0.595              1.978              4.816
 Vibration     3          0.606              1.942              3.294
 Vibration     4          0.632              1.857              2.253
 Vibration     5          0.651              1.798              1.892
 Vibration     6          0.673              1.733              1.612
 Vibration     7          0.680              1.711              1.536
 Vibration     8          0.703              1.643              1.330
 Vibration     9          0.714              1.612              1.251
 Vibration    10          0.715              1.610              1.245
 Vibration    11          0.745              1.526              1.064
 Vibration    12          0.773              1.451              0.931
 Vibration    13          0.780              1.434              0.904
 Vibration    14          0.873              1.211              0.615
 Vibration    15          0.948              1.053              0.467
 Vibration    16          0.976              0.997              0.422
 Vibration    17          0.980              0.990              0.417

 Optimization completed.
    -- Stationary point found.
 Normal termination of Gaussian 16 at Thu Feb  3 03:47:26 2022.

 ----------------------------------------------------------------------
 # M062X/def2tzvp int=(grid=ultrafine) pop=nbo7 polar prop=efg volume g
 uess=read geom=check
 ----------------------------------------------------------------------

 -------
 Ac5.xyz
 -------
 Structure from the checkpoint file:  "Ac5_conf-3.chk"
 Charge =  0 Multiplicity = 1

 SCF Done:  E(RM062X) =  -538.736230933     A.U. after   13 cycles

  Exact polarizability:     146.143      -4.156     115.838      -6.259      -7.403      90.755
 Approx polarizability:     169.011      -4.160     156.566      -9.469     -11.611     120.444

 Summary of Natural Population Analysis:

                                     Natural Population
             Natural    ---------------------------------------------
  Atom No    Charge        Core      Valence    Rydberg      Total
 --------------------------------------------------------------------
    O  1   -0.58551      2.00000     6.55892    0.02659     8.58551
    C  2    0.80660      1.99999     3.15338    0.04003     5.19340
    C  3   -0.16866      1.99999     4.15038    0.01829     6.16866
    C  4   -0.00284      1.99999     3.98147    0.02137     6.00284
    C  5   -0.19553      1.99999     4.17901    0.01652     6.19553
    C  6   -0.20480      1.99999     4.18839    0.01641     6.20480
    C  7   -0.21452      1.99999     4.19823    0.01630     6.21452
    C  8   -0.20573      1.99999     4.18925    0.01648     6.20573
    C  9   -0.21889      1.99999     4.20294    0.01596     6.21889
    C 10   -0.58911      1.99999     4.57934    0.00977     6.58911
    C 11   -0.60049      1.99999     4.59073    0.00977     6.60049
    O 12   -0.69882      2.00000     6.67721    0.02162     8.69882
    H 13    0.21262      0.00000     0.78588    0.00150     0.78738
    H 14    0.21457      0.00000     0.78424    0.00119     0.78543
    H 15    0.21443      0.00000     0.78445    0.00112     0.78557
    H 16    0.21330      0.00000     0.78551    0.00119     0.78670
    H 17    0.21263      0.00000     0.78598    0.00139     0.78737
    H 18    0.21579      0.00000     0.78297    0.00124     0.78421
    H 19    0.21424      0.00000     0.78469    0.00108     0.78576
    H 20    0.22257      0.00000     0.77621    0.00122     0.77743
    H 21    0.22020      0.00000     0.77873    0.00107     0.77980
    H 22    0.22629      0.00000     0.77262    0.00109     0.77371
    H 23    0.21458      0.00000     0.78406    0.00136     0.78542
    H 24    0.49708      0.00000     0.49948    0.00344     0.50292
 ====================================================================
 * Total *  0.00000     23.99991    63.75407    0.24602    88.00000

 1\1\GINC-NOTCH075\SP\RM062X\def2TZVP\C10H12O2\U6032257\03-Feb-2022\0\\
 # M062X/def2tzvp int=(grid=ultrafine) pop=nbo7 polar prop=efg volume g
 uess=read geom=check\\Ac5.xyz\\0,1\O,0,-1.1907224143,-0.5414804735,2.2
 588573347\C,0,-1.6633677804,-0.0143898134,1.2779170796\C,0,-1.02010192
 12,0.0814819967,-0.1121062403\C,0,0.4770393669,-0.2137425477,-0.010857
 8006\C,0,1.2652512678,0.5211201369,0.8869250036\C,0,2.6405088842,0.327
 0340061,0.9627101301\C,0,3.2636133582,-0.6099891613,0.135797355\C,0,2.
 4938604667,-1.3473625898,-0.7592235783\C,0,1.1125683626,-1.1500808372,

 Normal termination of Gaussian 16 at Thu Feb  3 03:50:57 2022.
 Gaussian 16:  ES64L-G16RevC.01  3-Jul-2019

 --------------------------------------------------------------------
 # M062X/def2tzvp int=(grid=ultrafine) nmr=giao guess=read geom=check
 --------------------------------------------------------------------

 -------
 Ac5.xyz
 -------
 Structure from the checkpoint file:  "Ac5_conf-3.chk"
 Charge =  0 Multiplicity = 1

                         Standard orientation:
 ---------------------------------------------------------------------
 Center     Atomic      Atomic             Coordinates (Angstroms)
 Number     Number       Type             X           Y           Z
 ---------------------------------------------------------------------
      1          8           0       -1.371026   -1.471321   -1.216102
      2          6           0       -1.780054   -0.647965   -0.429818
      3          6           0       -0.970063    0.481924    0.220117
      4          6           0        0.525345    0.198798    0.070336
      5          6           0        1.043567   -1.024620    0.519790
      6          6           0        2.406827   -1.294223    0.459937
      7          6           0        3.289093   -0.340111   -0.051270
      8          6           0        2.788905    0.878045   -0.502057
      9          6           0        1.418578    1.143566   -0.441483
     10          6           0       -1.316541    0.589968    1.724451
     11          6           0       -1.416077    1.782147   -0.485235
     12          8           0       -3.087373   -0.605719   -0.058471
     13          1           0        0.369481   -1.782632    0.905264
     14          1           0        2.781325   -2.251905    0.808641
     15          1           0        4.353537   -0.548196   -0.099439
     16          1           0        3.461782    1.628917   -0.905338
     17          1           0        1.057268    2.099254   -0.801958
     18          1           0       -0.725354    1.394834    2.169750
     19          1           0       -1.077554   -0.334739    2.255676
     20          1           0       -2.376935    0.806662    1.867663
     21          1           0       -1.163920    1.766130   -1.549056
     22          1           0       -2.496108    1.905998   -0.385315
     23          1           0       -0.931918    2.647718   -0.025352
     24          1           0       -3.521884   -1.320907   -0.552561
 ---------------------------------------------------------------------

 SCF Done:  E(RM062X) =  -538.736230933     A.U. after    1 cycles

      1  O    Isotropic =  -172.9341   Anisotropy =   654.0963

      2  C    Isotropic =   -13.5450   Anisotropy =   128.3157

      3  C    Isotropic =   132.4895   Anisotropy =    30.5073

      4  C    Isotropic =    15.9138   Anisotropy =   230.6523

      5  C    Isotropic =    31.3635   Anisotropy =   211.6781

      6  C    Isotropic =    35.7073   Anisotropy =   213.9925

      7  C    Isotropic =    37.2551   Anisotropy =   215.6164

      8  C    Isotropic =    35.8852   Anisotropy =   213.5615

      9  C    Isotropic =    40.0677   Anisotropy =   208.7826

     10  C    Isotropic =   152.8372   Anisotropy =    40.8479

     11  C    Isotropic =   158.8273   Anisotropy =    33.7747

     12  O    Isotropic =   106.9180   Anisotropy =   220.1379

     13  H    Isotropic =    23.7549   Anisotropy =    11.1522

     14  H    Isotropic =    23.7372   Anisotropy =     6.3830

     15  H    Isotropic =    23.8720   Anisotropy =     5.4810

     16  H    Isotropic =    23.7667   Anisotropy =     6.4713

     17  H    Isotropic =    23.8224   Anisotropy =    11.8446

     18  H    Isotropic =    30.9214   Anisotropy =     7.0806

     19  H    Isotropic =    30.2442   Anisotropy =     8.1585

     20  H    Isotropic =    29.9026   Anisotropy =     8.4354

     21  H    Isotropic =    30.2320   Anisotropy =     9.0004

     22  H    Isotropic =    30.1090   Anisotropy =     7.4764

     23  H    Isotropic =    30.1534   Anisotropy =     8.0785

     24  H    Isotropic =    25.6695   Anisotropy =    11.4302

 The electronic state is 1-A.
 Alpha  occ. eigenvalues --  -19.67734 -19.62322 -10.68046 -10.57867 -10.55330
 Alpha  occ. eigenvalues --  -10.54205 -10.54144 -10.54141 -10.54123 -10.54043
 Alpha  occ. eigenvalues --  -10.54005 -10.53746  -1.23850  -1.14208  -0.96876
 Alpha  occ. eigenvalues --   -0.92267  -0.84187  -0.83185  -0.79138  -0.75139
 Alpha  occ. eigenvalues --   -0.70315  -0.68531  -0.64317  -0.59508  -0.58196
 Alpha  occ. eigenvalues --   -0.56647  -0.54576  -0.52338  -0.51923  -0.51088
 Alpha  occ. eigenvalues --   -0.50075  -0.48639  -0.47119  -0.45671  -0.45147
 Alpha  occ. eigenvalues --   -0.44333  -0.42805  -0.41908  -0.40318  -0.39214
 Alpha  occ. eigenvalues --   -0.39072  -0.35381  -0.30631  -0.29989
 Alpha virt. eigenvalues --    0.01922   0.02388   0.04022   0.05796   0.07811
 Alpha virt. eigenvalues --    0.09257   0.10173   0.11646   0.12119   0.12726
 Alpha virt. eigenvalues --    0.13358   0.13962   0.14631   0.16395   0.16453

 Mulliken charges:
               1
     1  O   -0.306296
     2  C    0.339032
     3  C   -0.104875
     4  C    0.174556
     5  C   -0.211384
     6  C   -0.152716
     7  C   -0.152599
     8  C   -0.155632
     9  C   -0.173928
    10  C   -0.409135
    11  C   -0.529946
    12  O   -0.418076
    13  H    0.163566
    14  H    0.142364
    15  H    0.142126
    16  H    0.140868
    17  H    0.162064
    18  H    0.159938
    19  H    0.153784
    20  H    0.166524
    21  H    0.187202
    22  H    0.177087
    23  H    0.167852
    24  H    0.337623
 Sum of Mulliken charges =  -0.00000

 Dipole moment (field-independent basis, Debye):
    X=             -0.8019    Y=              1.1127    Z=              1.0085  Tot=              1.7024
 Quadrupole moment (field-independent basis, Debye-Ang):
   XX=            -63.0281   YY=            -68.7683   ZZ=            -75.4577
   XY=              1.1111   XZ=              0.1009   YZ=             -4.8324

 1\1\GINC-NOTCH075\SP\RM062X\def2TZVP\C10H12O2\U6032257\03-Feb-2022\0\\
 # M062X/def2tzvp int=(grid=ultrafine) nmr=giao guess=read geom=check\\
 Ac5.xyz\\0,1\O,0,-1.1907224143,-0.5414804735,2.2588573347\C,0,-1.66336
 77804,-0.0143898134,1.2779170796\C,0,-1.0201019212,0.0814819967,-0.112
 1062403\C,0,0.4770393669,-0.2137425477,-0.0108578006\C,0,1.2652512678,
 0.5211201369,0.8869250036\C,0,2.6405088842,0.3270340061,0.9627101301\C
 ,0,3.2636133582,-0.6099891613,0.135797355\C,0,2.4938604667,-1.34736258
 98,-0.7592235783\C,0,1.1125683626,-1.1500808372,-0.8304825917\C,0,-1.2

 Normal termination of Gaussian 16 at Thu Feb  3 03:52:16 2022.
