 Gaussian 16, Revision C.01,

 ----------------------------------------------------------------------
 # B3LYP/6-31G(d,p) empiricaldispersion=GD3BJ int=(grid=ultrafine) opt
 freq=noraman
 ----------------------------------------------------------------------

 ------
 N1.xyz
 ------
 Symbolic Z-matrix:
 Charge =  0 Multiplicity = 1

 SCF Done:  E(RB3LYP) =  -249.707177654     A.U. after   13 cycles
 SCF Done:  E(RB3LYP) =  -249.710129781     A.U. after   11 cycles
 SCF Done:  E(RB3LYP) =  -249.710442928     A.U. after   11 cycles
 SCF Done:  E(RB3LYP) =  -249.710536227     A.U. after   10 cycles
 SCF Done:  E(RB3LYP) =  -249.710570149     A.U. after    9 cycles
 SCF Done:  E(RB3LYP) =  -249.710619201     A.U. after   10 cycles
 SCF Done:  E(RB3LYP) =  -249.710629647     A.U. after    8 cycles
 SCF Done:  E(RB3LYP) =  -249.710633285     A.U. after    8 cycles
 SCF Done:  E(RB3LYP) =  -249.710633402     A.U. after    7 cycles
 SCF Done:  E(RB3LYP) =  -249.710633422     A.U. after    6 cycles
 Optimization completed.
    -- Stationary point found.
 Normal termination of Gaussian 16 at Mon Feb 21 19:00:20 2022.

 ----------------------------------------------------------------------
 #N Geom=AllCheck Guess=TCheck SCRF=Check GenChk RB3LYP/6-31G(d,p) Freq
 ----------------------------------------------------------------------

 Structure from the checkpoint file:  "N1_conf-7.chk"
 ------
 N1.xyz
 ------
 Charge =  0 Multiplicity = 1

 SCF Done:  E(RB3LYP) =  -249.710633422     A.U. after    1 cycles

                      1                      2                      3
                      A                      A                      A
 Frequencies --    100.6707               147.0134               230.8363
 Red. masses --      2.7187                 1.4202                 1.0718
 Frc consts  --      0.0162                 0.0181                 0.0336
 IR Inten    --      5.9781                20.1251                23.1058

                      4                      5                      6
                      A                      A                      A
 Frequencies --    275.3720               277.1082               403.3264
 Red. masses --      2.0851                 1.9901                 2.1020
 Frc consts  --      0.0932                 0.0900                 0.2015
 IR Inten    --      7.2119                 1.2298                 1.8205

                      7                      8                      9
                      A                      A                      A
 Frequencies --    567.8046               802.8934               853.1784
 Red. masses --      2.5720                 1.3015                 2.8832
 Frc consts  --      0.4886                 0.4943                 1.2365
 IR Inten    --     17.2385                81.2428                52.2963

                     10                     11                     12
                      A                      A                      A
 Frequencies --    919.6441               989.1345              1068.6246
 Red. masses --      1.5709                 2.5184                 1.6140
 Frc consts  --      0.7828                 1.4517                 1.0859
 IR Inten    --     29.2222                20.1082                30.6858

                     13                     14                     15
                      A                      A                      A
 Frequencies --   1107.6275              1159.7569              1187.8699
 Red. masses --      2.7915                 1.5994                 1.3395
 Frc consts  --      2.0178                 1.2674                 1.1136
 IR Inten    --     11.1099                26.6535                 6.2039

                     16                     17                     18
                      A                      A                      A
 Frequencies --   1219.4950              1259.4588              1286.9163
 Red. masses --      2.3982                 1.5872                 1.1684
 Frc consts  --      2.1014                 1.4833                 1.1401
 IR Inten    --     84.1077                 3.4501                 6.1203

                     19                     20                     21
                      A                      A                      A
 Frequencies --   1345.1008              1417.0679              1441.3357
 Red. masses --      1.2054                 1.2505                 1.4493
 Frc consts  --      1.2850                 1.4795                 1.7739
 IR Inten    --      8.7505                16.9734                 8.8455

                     22                     23                     24
                      A                      A                      A
 Frequencies --   1486.7353              1499.0072              1505.8504
 Red. masses --      1.1381                 1.0513                 1.1056
 Frc consts  --      1.4822                 1.3919                 1.4771
 IR Inten    --      1.6088                 1.2743                 3.4240

                     25                     26                     27
                      A                      A                      A
 Frequencies --   1523.4140              1539.4140              1664.7721
 Red. masses --      1.0671                 1.0697                 1.0908
 Frc consts  --      1.4591                 1.4936                 1.7812
 IR Inten    --      2.8507                 7.2842                30.4027

                     28                     29                     30
                      A                      A                      A
 Frequencies --   2940.0343              2966.7569              2983.0873
 Red. masses --      1.0736                 1.0703                 1.0487
 Frc consts  --      5.4676                 5.5504                 5.4985
 IR Inten    --     60.9502                96.1265                71.8240

                     31                     32                     33
                      A                      A                      A
 Frequencies --   3048.8443              3064.1671              3072.7395
 Red. masses --      1.0862                 1.0904                 1.0929
 Frc consts  --      5.9486                 6.0318                 6.0796
 IR Inten    --      9.9703                36.4656                78.8346

                     34                     35                     36
                      A                      A                      A
 Frequencies --   3126.3673              3494.7387              3583.8628
 Red. masses --      1.0998                 1.0493                 1.0932
 Frc consts  --      6.3335                 7.5505                 8.2726
 IR Inten    --     34.0586                 0.8049                 0.0263

 - Thermochemistry -
 -------------------
 Temperature   298.150 Kelvin.  Pressure   1.00000 Atm.
 Atom     1 has atomic number  7 and mass  14.00307

 Molecular mass:    75.06841 amu.
 Principal axes and moments of inertia in atomic units:
                           1         2         3
     Eigenvalues --   217.02945 523.73000 597.95462
           X            0.99933   0.02843  -0.02303
           Y           -0.02851   0.99959  -0.00314
           Z            0.02293   0.00380   0.99973
 This molecule is an asymmetric top.
 Rotational symmetry number  1.
 Rotational temperatures (Kelvin)      0.39909     0.16538     0.14485
 Rotational constants (GHZ):           8.31565     3.44594     3.01819
 Zero-point vibrational energy     332322.8 (Joules/Mol)
                                   79.42705 (Kcal/Mol)
 Warning -- explicit consideration of   7 degrees of freedom as
           vibrations may cause significant error
 Vibrational temperatures:    144.84   211.52   332.12   396.20   398.70
          (Kelvin)            580.30   816.94  1155.18  1227.53  1323.16
                             1423.14  1537.51  1593.63  1668.63  1709.08
                             1754.58  1812.08  1851.59  1935.30  2038.84
                             2073.76  2139.08  2156.74  2166.58  2191.85
                             2214.87  2395.24  4230.05  4268.50  4292.00
                             4386.61  4408.65  4420.99  4498.15  5028.15
                             5156.38

 Zero-point correction=                           0.126575 (Hartree/Particle)
 Thermal correction to Energy=                    0.133099
 Thermal correction to Enthalpy=                  0.134043
 Thermal correction to Gibbs Free Energy=         0.096877
 Sum of electronic and zero-point Energies=           -249.584058
 Sum of electronic and thermal Energies=              -249.577535
 Sum of electronic and thermal Enthalpies=            -249.576590
 Sum of electronic and thermal Free Energies=         -249.613756

                     E (Thermal)             CV                S
                      KCal/Mol        Cal/Mol-Kelvin    Cal/Mol-Kelvin
 Total                   83.521             21.951             78.222
 Electronic               0.000              0.000              0.000
 Translational            0.889              2.981             38.863
 Rotational               0.889              2.981             25.722
 Vibrational             81.743             15.989             13.636
 Vibration     1          0.604              1.949              3.441
 Vibration     2          0.617              1.906              2.711
 Vibration     3          0.653              1.794              1.872
 Vibration     4          0.677              1.719              1.562
 Vibration     5          0.678              1.716              1.551
 Vibration     6          0.769              1.463              0.951
 Vibration     7          0.924              1.101              0.508

 Optimization completed.
    -- Stationary point found.
 Normal termination of Gaussian 16 at Mon Feb 21 19:00:32 2022.

 ----------------------------------------------------------------------
 # M062X/def2tzvp int=(grid=ultrafine) pop=nbo7 polar prop=efg volume g
 uess=read geom=check
 ----------------------------------------------------------------------

 ------
 N1.xyz
 ------
 Structure from the checkpoint file:  "N1_conf-7.chk"
 Charge =  0 Multiplicity = 1

 SCF Done:  E(RM062X) =  -249.667619465     A.U. after   11 cycles

  Exact polarizability:      53.955       1.413      50.151      -0.923       1.022      46.498
 Approx polarizability:      56.080       1.189      56.853      -0.365       0.573      57.090

 Summary of Natural Population Analysis:

                                     Natural Population
             Natural    ---------------------------------------------
  Atom No    Charge        Core      Valence    Rydberg      Total
 --------------------------------------------------------------------
    N  1   -0.83342      1.99999     5.80684    0.02659     7.83342
    C  2   -0.24830      1.99999     4.23498    0.01332     6.24830
    C  3   -0.07208      1.99999     4.05373    0.01835     6.07208
    O  4   -0.50603      2.00000     6.48199    0.02405     8.50603
    C  5   -0.26319      1.99999     4.24702    0.01618     6.26319
    H  6    0.35261      0.00000     0.64524    0.00216     0.64739
    H  7    0.35573      0.00000     0.64272    0.00155     0.64427
    H  8    0.18325      0.00000     0.81491    0.00184     0.81675
    H  9    0.17102      0.00000     0.82713    0.00184     0.82898
    H 10    0.17912      0.00000     0.81897    0.00190     0.82088
    H 11    0.15994      0.00000     0.83758    0.00248     0.84006
    H 12    0.15378      0.00000     0.84397    0.00225     0.84622
    H 13    0.17694      0.00000     0.82098    0.00208     0.82306
    H 14    0.19063      0.00000     0.80821    0.00116     0.80937
 ====================================================================
 * Total *  0.00000      9.99997    31.88428    0.11575    42.00000

 1\1\GINC-NOTCH099\SP\RM062X\def2TZVP\C3H9N1O1\U6032257\21-Feb-2022\0\\
 # M062X/def2tzvp int=(grid=ultrafine) pop=nbo7 polar prop=efg volume g
 uess=read geom=check\\N1.xyz\\0,1\N,0,-0.4999634544,-1.0995669176,-1.8
 079960772\C,0,0.8231856121,-0.8683382967,-1.2321394201\C,0,0.865450148
 6,0.4447947861,-0.4450244301\O,0,-0.2214489525,0.6620560028,0.42946410
 28\C,0,-0.386906549,-0.351060756,1.401772466\H,0,-0.8003896974,-0.2809
 892402,-2.3319537642\H,0,-0.4653503101,-1.8735180779,-2.4657336597\H,0
 ,1.0542790801,-1.709615036,-0.567200808\H,0,1.6506274449,-0.819115095,

 Normal termination of Gaussian 16 at Mon Feb 21 19:00:56 2022.
 Gaussian 16:  ES64L-G16RevC.01  3-Jul-2019

 --------------------------------------------------------------------
 # M062X/def2tzvp int=(grid=ultrafine) nmr=giao guess=read geom=check
 --------------------------------------------------------------------

 ------
 N1.xyz
 ------
 Structure from the checkpoint file:  "N1_conf-7.chk"
 Charge =  0 Multiplicity = 1

                         Standard orientation:
 ---------------------------------------------------------------------
 Center     Atomic      Atomic             Coordinates (Angstroms)
 Number     Number       Type             X           Y           Z
 ---------------------------------------------------------------------
      1          7           0        1.578955   -0.789243   -0.325759
      2          6           0        1.114399    0.279614    0.556020
      3          6           0       -0.064972    1.036887   -0.061458
      4          8           0       -1.079359    0.228055   -0.618316
      5          6           0       -1.657366   -0.679805    0.298671
      6          1           0        1.752280   -0.421662   -1.258336
      7          1           0        2.461591   -1.163107    0.011874
      8          1           0        0.809472   -0.174868    1.506682
      9          1           0        1.874680    1.041389    0.809744
     10          1           0        0.292195    1.656113   -0.893036
     11          1           0       -0.478092    1.717184    0.704227
     12          1           0       -2.012862   -0.169903    1.208880
     13          1           0       -0.954126   -1.472781    0.581663
     14          1           0       -2.515321   -1.132285   -0.204254
 ---------------------------------------------------------------------

 SCF Done:  E(RM062X) =  -249.667619465     A.U. after    1 cycles

      1  N    Isotropic =   237.0221   Anisotropy =    46.4503

      2  C    Isotropic =   142.9556   Anisotropy =    41.8547

      3  C    Isotropic =   112.5230   Anisotropy =    63.6653

      4  O    Isotropic =   327.0971   Anisotropy =    35.5626

      5  C    Isotropic =   130.7327   Anisotropy =    80.8525

      6  H    Isotropic =    31.9289   Anisotropy =    12.7900

      7  H    Isotropic =    31.6004   Anisotropy =    15.1215

      8  H    Isotropic =    28.7004   Anisotropy =     5.9177

      9  H    Isotropic =    29.2622   Anisotropy =     9.0713

     10  H    Isotropic =    28.2542   Anisotropy =     8.0651

     11  H    Isotropic =    28.5546   Anisotropy =     6.8671

     12  H    Isotropic =    29.2252   Anisotropy =     8.6360

     13  H    Isotropic =    28.1377   Anisotropy =     7.4511

     14  H    Isotropic =    28.5102   Anisotropy =     9.1075

 The electronic state is 1-A.
 Alpha  occ. eigenvalues --  -19.61959 -14.72731 -10.58076 -10.56702 -10.56092
 Alpha  occ. eigenvalues --   -1.14968  -0.98699  -0.83101  -0.76517  -0.67156
 Alpha  occ. eigenvalues --   -0.57605  -0.56555  -0.54215  -0.51075  -0.49287
 Alpha  occ. eigenvalues --   -0.46864  -0.43685  -0.42145  -0.37543  -0.32498
 Alpha  occ. eigenvalues --   -0.31062
 Alpha virt. eigenvalues --    0.05941   0.09153   0.10275   0.11434   0.12619
 Alpha virt. eigenvalues --    0.14298   0.15206   0.16875   0.17061   0.17459
 Alpha virt. eigenvalues --    0.20503   0.22134   0.23935   0.25258   0.26197

 Mulliken charges:
               1
     1  N   -0.535751
     2  C   -0.189980
     3  C   -0.137489
     4  O   -0.300852
     5  C   -0.260054
     6  H    0.232060
     7  H    0.227274
     8  H    0.151623
     9  H    0.126851
    10  H    0.133368
    11  H    0.132705
    12  H    0.125315
    13  H    0.155105
    14  H    0.139825
 Sum of Mulliken charges =  -0.00000

 Dipole moment (field-independent basis, Debye):
    X=              1.5048    Y=              0.6480    Z=              1.2060  Tot=              2.0344
 Quadrupole moment (field-independent basis, Debye-Ang):
   XX=            -28.5862   YY=            -33.1592   ZZ=            -32.5114
   XY=              1.1949   XZ=             -2.2850   YZ=             -0.6265

 1\1\GINC-NOTCH099\SP\RM062X\def2TZVP\C3H9N1O1\U6032257\21-Feb-2022\0\\
 # M062X/def2tzvp int=(grid=ultrafine) nmr=giao guess=read geom=check\\
 N1.xyz\\0,1\N,0,-0.4999634544,-1.0995669176,-1.8079960772\C,0,0.823185
 6121,-0.8683382967,-1.2321394201\C,0,0.8654501486,0.4447947861,-0.4450
 244301\O,0,-0.2214489525,0.6620560028,0.4294641028\C,0,-0.386906549,-0
 .351060756,1.401772466\H,0,-0.8003896974,-0.2809892402,-2.3319537642\H
 ,0,-0.4653503101,-1.8735180779,-2.4657336597\H,0,1.0542790801,-1.70961
 5036,-0.567200808\H,0,1.6506274449,-0.819115095,-1.9640008812\H,0,0.84

 Normal termination of Gaussian 16 at Mon Feb 21 19:01:06 2022.
