 Gaussian 16, Revision C.01,

 ----------------------------------------------------------------------
 # B3LYP/6-31G(d,p) empiricaldispersion=GD3BJ int=(grid=ultrafine) opt
 freq=noraman
 ----------------------------------------------------------------------

 ------
 N1.xyz
 ------
 Symbolic Z-matrix:
 Charge =  0 Multiplicity = 1

 SCF Done:  E(RB3LYP) =  -249.712687917     A.U. after   13 cycles
 SCF Done:  E(RB3LYP) =  -249.714596915     A.U. after   11 cycles
 SCF Done:  E(RB3LYP) =  -249.714808757     A.U. after   10 cycles
 SCF Done:  E(RB3LYP) =  -249.714824879     A.U. after    8 cycles
 SCF Done:  E(RB3LYP) =  -249.714829369     A.U. after    8 cycles
 SCF Done:  E(RB3LYP) =  -249.714830877     A.U. after    7 cycles
 SCF Done:  E(RB3LYP) =  -249.714831620     A.U. after    7 cycles
 SCF Done:  E(RB3LYP) =  -249.714831767     A.U. after    6 cycles
 SCF Done:  E(RB3LYP) =  -249.714831822     A.U. after    6 cycles
 Optimization completed.
    -- Stationary point found.
 Normal termination of Gaussian 16 at Mon Feb 21 18:59:57 2022.

 ----------------------------------------------------------------------
 #N Geom=AllCheck Guess=TCheck SCRF=Check GenChk RB3LYP/6-31G(d,p) Freq
 ----------------------------------------------------------------------

 Structure from the checkpoint file:  "N1_conf-2.chk"
 ------
 N1.xyz
 ------
 Charge =  0 Multiplicity = 1

 SCF Done:  E(RB3LYP) =  -249.714831822     A.U. after    1 cycles

                      1                      2                      3
                      A                      A                      A
 Frequencies --     78.7034               150.1827               226.4839
 Red. masses --      2.3188                 1.5237                 1.5072
 Frc consts  --      0.0085                 0.0202                 0.0455
 IR Inten    --      2.2854                 1.5014                 9.9063

                      4                      5                      6
                      A                      A                      A
 Frequencies --    264.4465               324.9026               441.2011
 Red. masses --      1.7783                 1.5385                 1.8364
 Frc consts  --      0.0733                 0.0957                 0.2106
 IR Inten    --     29.2728                26.4815                 1.6009

                      7                      8                      9
                      A                      A                      A
 Frequencies --    531.5578               809.3783               876.8145
 Red. masses --      2.2419                 1.8955                 2.4884
 Frc consts  --      0.3732                 0.7316                 1.1271
 IR Inten    --      6.3690                25.0320                22.7609

                     10                     11                     12
                      A                      A                      A
 Frequencies --    932.3368               969.0241              1046.5957
 Red. masses --      1.4390                 1.9875                 1.9658
 Frc consts  --      0.7370                 1.0996                 1.2687
 IR Inten    --    172.6969                14.8108                24.4106

                     13                     14                     15
                      A                      A                      A
 Frequencies --   1122.4367              1147.2234              1184.6372
 Red. masses --      2.2418                 2.4613                 1.2917
 Frc consts  --      1.6641                 1.9086                 1.0680
 IR Inten    --     51.0590                35.4905                 3.9572

                     16                     17                     18
                      A                      A                      A
 Frequencies --   1217.6587              1234.7365              1317.3885
 Red. masses --      1.9273                 1.5297                 1.2343
 Frc consts  --      1.6836                 1.3740                 1.2621
 IR Inten    --     66.4001                 0.9811                 6.3724

                     19                     20                     21
                      A                      A                      A
 Frequencies --   1389.3195              1397.1186              1412.3864
 Red. masses --      1.2668                 1.2584                 1.2428
 Frc consts  --      1.4406                 1.4472                 1.4607
 IR Inten    --     18.9435                 3.0266                12.6064

                     22                     23                     24
                      A                      A                      A
 Frequencies --   1485.0120              1492.3229              1502.8269
 Red. masses --      1.1217                 1.0735                 1.0848
 Frc consts  --      1.4574                 1.4086                 1.4435
 IR Inten    --      0.7822                 0.9904                 4.6862

                     25                     26                     27
                      A                      A                      A
 Frequencies --   1513.4077              1525.3897              1680.9395
 Red. masses --      1.0865                 1.0632                 1.0851
 Frc consts  --      1.4662                 1.4575                 1.8065
 IR Inten    --      2.0077                 7.5237                21.3493

                     28                     29                     30
                      A                      A                      A
 Frequencies --   2977.7113              2991.9115              3037.8252
 Red. masses --      1.0644                 1.0411                 1.0801
 Frc consts  --      5.5608                 5.4909                 5.8727
 IR Inten    --     56.1053                57.7232                46.1403

                     31                     32                     33
                      A                      A                      A
 Frequencies --   3047.1021              3067.6844              3086.5223
 Red. masses --      1.0835                 1.0962                 1.1030
 Frc consts  --      5.9272                 6.0782                 6.1910
 IR Inten    --     44.3787                24.5850                70.1758

                     34                     35                     36
                      A                      A                      A
 Frequencies --   3129.1755              3474.2834              3554.9531
 Red. masses --      1.0977                 1.0494                 1.0912
 Frc consts  --      6.3330                 7.4635                 8.1253
 IR Inten    --     30.1553                 1.7926                 0.5700

 - Thermochemistry -
 -------------------
 Temperature   298.150 Kelvin.  Pressure   1.00000 Atm.
 Atom     1 has atomic number  7 and mass  14.00307

 Molecular mass:    75.06841 amu.
 Principal axes and moments of inertia in atomic units:
                           1         2         3
     Eigenvalues --   192.11679 589.57815 633.69009
           X            0.99930  -0.02281   0.02952
           Y            0.02239   0.99964   0.01452
           Z           -0.02984  -0.01385   0.99946
 This molecule is an asymmetric top.
 Rotational symmetry number  1.
 Rotational temperatures (Kelvin)      0.45084     0.14691     0.13668
 Rotational constants (GHZ):           9.39398     3.06107     2.84799
 Zero-point vibrational energy     332810.7 (Joules/Mol)
                                   79.54366 (Kcal/Mol)
 Warning -- explicit consideration of   7 degrees of freedom as
           vibrations may cause significant error
 Vibrational temperatures:    113.24   216.08   325.86   380.48   467.46
          (Kelvin)            634.79   764.79  1164.51  1261.54  1341.42
                             1394.21  1505.82  1614.94  1650.60  1704.43
                             1751.94  1776.51  1895.43  1998.92  2010.14
                             2032.11  2136.60  2147.12  2162.23  2177.46
                             2194.70  2418.50  4284.26  4304.69  4370.75
                             4384.10  4413.71  4440.82  4502.19  4998.72
                             5114.78

 Zero-point correction=                           0.126761 (Hartree/Particle)
 Thermal correction to Energy=                    0.133268
 Thermal correction to Enthalpy=                  0.134212
 Thermal correction to Gibbs Free Energy=         0.096918
 Sum of electronic and zero-point Energies=           -249.588071
 Sum of electronic and thermal Energies=              -249.581564
 Sum of electronic and thermal Enthalpies=            -249.580619
 Sum of electronic and thermal Free Energies=         -249.617913

                     E (Thermal)             CV                S
                      KCal/Mol        Cal/Mol-Kelvin    Cal/Mol-Kelvin
 Total                   83.627             21.883             78.492
 Electronic               0.000              0.000              0.000
 Translational            0.889              2.981             38.863
 Rotational               0.889              2.981             25.776
 Vibrational             81.850             15.921             13.852
 Vibration     1          0.600              1.963              3.923
 Vibration     2          0.618              1.902              2.670
 Vibration     3          0.650              1.801              1.907
 Vibration     4          0.671              1.738              1.632
 Vibration     5          0.709              1.626              1.285
 Vibration     6          0.801              1.380              0.823
 Vibration     7          0.887              1.180              0.584

 Optimization completed.
    -- Stationary point found.
 Normal termination of Gaussian 16 at Mon Feb 21 19:00:08 2022.

 ----------------------------------------------------------------------
 # M062X/def2tzvp int=(grid=ultrafine) pop=nbo7 polar prop=efg volume g
 uess=read geom=check
 ----------------------------------------------------------------------

 ------
 N1.xyz
 ------
 Structure from the checkpoint file:  "N1_conf-2.chk"
 Charge =  0 Multiplicity = 1

 SCF Done:  E(RM062X) =  -249.669892744     A.U. after   11 cycles

  Exact polarizability:      55.401      -1.089      49.208       1.873       0.644      45.823
 Approx polarizability:      57.169      -1.719      56.956       2.089       1.072      55.865

 Summary of Natural Population Analysis:

                                     Natural Population
             Natural    ---------------------------------------------
  Atom No    Charge        Core      Valence    Rydberg      Total
 --------------------------------------------------------------------
    N  1   -0.82312      1.99999     5.79684    0.02629     7.82312
    C  2   -0.24818      1.99999     4.23345    0.01474     6.24818
    C  3   -0.08737      1.99999     4.07026    0.01711     6.08737
    O  4   -0.51958      2.00000     6.49612    0.02347     8.51958
    C  5   -0.26023      1.99999     4.24418    0.01606     6.26023
    H  6    0.34562      0.00000     0.65234    0.00204     0.65438
    H  7    0.35796      0.00000     0.63992    0.00213     0.64204
    H  8    0.18395      0.00000     0.81421    0.00184     0.81605
    H  9    0.19471      0.00000     0.80381    0.00149     0.80529
    H 10    0.17964      0.00000     0.81820    0.00217     0.82036
    H 11    0.16027      0.00000     0.83703    0.00270     0.83973
    H 12    0.16173      0.00000     0.83611    0.00216     0.83827
    H 13    0.16134      0.00000     0.83678    0.00188     0.83866
    H 14    0.19327      0.00000     0.80557    0.00116     0.80673
 ====================================================================
 * Total *  0.00000      9.99997    31.88481    0.11523    42.00000

 1\1\GINC-NOTCH224\SP\RM062X\def2TZVP\C3H9N1O1\U6032257\21-Feb-2022\0\\
 # M062X/def2tzvp int=(grid=ultrafine) pop=nbo7 polar prop=efg volume g
 uess=read geom=check\\N1.xyz\\0,1\N,0,-0.4457555193,-1.0890096756,-2.0
 481856489\C,0,0.5124323588,-0.0971958348,-1.5603622865\C,0,1.031414138
 2,-0.3597118552,-0.1422405936\O,0,-0.0229085497,-0.4930690671,0.803626
 3867\C,0,-0.5853474559,0.7407700496,1.2070844455\H,0,0.0220561531,-1.9
 901454607,-2.1337545756\H,0,-1.1491434462,-1.2211611053,-1.3228002347\
 H,0,0.0345976032,0.8893799458,-1.6030489779\H,0,1.3654749435,-0.052397

 Normal termination of Gaussian 16 at Mon Feb 21 19:00:30 2022.
 Gaussian 16:  ES64L-G16RevC.01  3-Jul-2019

 --------------------------------------------------------------------
 # M062X/def2tzvp int=(grid=ultrafine) nmr=giao guess=read geom=check
 --------------------------------------------------------------------

 ------
 N1.xyz
 ------
 Structure from the checkpoint file:  "N1_conf-2.chk"
 Charge =  0 Multiplicity = 1

                         Standard orientation:
 ---------------------------------------------------------------------
 Center     Atomic      Atomic             Coordinates (Angstroms)
 Number     Number       Type             X           Y           Z
 ---------------------------------------------------------------------
      1          7           0       -1.832409   -0.754002   -0.131299
      2          6           0       -1.122735    0.306846    0.583373
      3          6           0        0.024790    0.946510   -0.206147
      4          8           0        0.966567   -0.015226   -0.666760
      5          6           0        1.863640   -0.458143    0.333520
      6          1           0       -2.301683   -0.353180   -0.942063
      7          1           0       -1.133403   -1.388936   -0.514251
      8          1           0       -0.738422   -0.111376    1.521921
      9          1           0       -1.836855    1.088785    0.868289
     10          1           0       -0.371116    1.423813   -1.110317
     11          1           0        0.528263    1.723056    0.393917
     12          1           0        2.415606    0.383544    0.779366
     13          1           0        1.362151   -1.007166    1.143070
     14          1           0        2.575609   -1.130005   -0.151240
 ---------------------------------------------------------------------

 SCF Done:  E(RM062X) =  -249.669892744     A.U. after    1 cycles

      1  N    Isotropic =   237.1377   Anisotropy =    48.0203

      2  C    Isotropic =   143.9264   Anisotropy =    41.8795

      3  C    Isotropic =   105.6532   Anisotropy =    53.9109

      4  O    Isotropic =   330.1809   Anisotropy =    31.9894

      5  C    Isotropic =   129.2286   Anisotropy =    84.1927

      6  H    Isotropic =    32.2835   Anisotropy =    14.7506

      7  H    Isotropic =    30.7752   Anisotropy =    11.5964

      8  H    Isotropic =    28.8979   Anisotropy =     6.7017

      9  H    Isotropic =    29.6665   Anisotropy =     8.3395

     10  H    Isotropic =    28.4561   Anisotropy =     7.9337

     11  H    Isotropic =    28.7229   Anisotropy =     5.8537

     12  H    Isotropic =    29.1738   Anisotropy =     8.8583

     13  H    Isotropic =    28.4640   Anisotropy =     8.3645

     14  H    Isotropic =    28.4530   Anisotropy =     9.0721

 The electronic state is 1-A.
 Alpha  occ. eigenvalues --  -19.63109 -14.72291 -10.58259 -10.58089 -10.55855
 Alpha  occ. eigenvalues --   -1.15832  -0.98488  -0.83310  -0.76907  -0.68234
 Alpha  occ. eigenvalues --   -0.58261  -0.55958  -0.54332  -0.53161  -0.48030
 Alpha  occ. eigenvalues --   -0.47278  -0.44934  -0.41360  -0.38817  -0.34762
 Alpha  occ. eigenvalues --   -0.30423
 Alpha virt. eigenvalues --    0.06331   0.08894   0.09892   0.11139   0.12522
 Alpha virt. eigenvalues --    0.13754   0.14949   0.15482   0.16453   0.17998
 Alpha virt. eigenvalues --    0.20325   0.21679   0.24319   0.25145   0.26683

 Mulliken charges:
               1
     1  N   -0.517787
     2  C   -0.193131
     3  C   -0.125124
     4  O   -0.319105
     5  C   -0.248916
     6  H    0.220351
     7  H    0.235603
     8  H    0.147417
     9  H    0.137206
    10  H    0.131849
    11  H    0.125926
    12  H    0.127819
    13  H    0.133745
    14  H    0.144146
 Sum of Mulliken charges =  -0.00000

 Dipole moment (field-independent basis, Debye):
    X=              0.9137    Y=              1.0715    Z=              0.3716  Tot=              1.4564
 Quadrupole moment (field-independent basis, Debye-Ang):
   XX=            -34.2755   YY=            -32.0393   ZZ=            -32.8993
   XY=             -3.9790   XZ=              4.2898   YZ=              0.7682

 1\1\GINC-NOTCH224\SP\RM062X\def2TZVP\C3H9N1O1\U6032257\21-Feb-2022\0\\
 # M062X/def2tzvp int=(grid=ultrafine) nmr=giao guess=read geom=check\\
 N1.xyz\\0,1\N,0,-0.4457555193,-1.0890096756,-2.0481856489\C,0,0.512432
 3588,-0.0971958348,-1.5603622865\C,0,1.0314141382,-0.3597118552,-0.142
 2405936\O,0,-0.0229085497,-0.4930690671,0.8036263867\C,0,-0.5853474559
 ,0.7407700496,1.2070844455\H,0,0.0220561531,-1.9901454607,-2.133754575
 6\H,0,-1.1491434462,-1.2211611053,-1.3228002347\H,0,0.0345976032,0.889
 3799458,-1.6030489779\H,0,1.3654749435,-0.0523971591,-2.2480280281\H,0

 Normal termination of Gaussian 16 at Mon Feb 21 19:00:38 2022.
