 Gaussian 16, Revision C.01,

 ----------------------------------------------------------------------
 # B3LYP/6-31G(d,p) empiricaldispersion=GD3BJ int=(grid=ultrafine) opt
 freq=noraman
 ----------------------------------------------------------------------

 ------
 N1.xyz
 ------
 Symbolic Z-matrix:
 Charge =  0 Multiplicity = 1

 SCF Done:  E(RB3LYP) =  -249.709049140     A.U. after   12 cycles
 SCF Done:  E(RB3LYP) =  -249.711283281     A.U. after   11 cycles
 SCF Done:  E(RB3LYP) =  -249.711435696     A.U. after    9 cycles
 SCF Done:  E(RB3LYP) =  -249.711473817     A.U. after    9 cycles
 SCF Done:  E(RB3LYP) =  -249.711489459     A.U. after    9 cycles
 SCF Done:  E(RB3LYP) =  -249.711493548     A.U. after    8 cycles
 SCF Done:  E(RB3LYP) =  -249.711494623     A.U. after    7 cycles
 Optimization completed.
    -- Stationary point found.
 Normal termination of Gaussian 16 at Mon Feb 21 19:00:02 2022.

 ----------------------------------------------------------------------
 #N Geom=AllCheck Guess=TCheck SCRF=Check GenChk RB3LYP/6-31G(d,p) Freq
 ----------------------------------------------------------------------

 Structure from the checkpoint file:  "N1_conf-5.chk"
 ------
 N1.xyz
 ------
 Charge =  0 Multiplicity = 1

 SCF Done:  E(RB3LYP) =  -249.711494623     A.U. after    1 cycles

                      1                      2                      3
                      A                      A                      A
 Frequencies --     81.3568               117.7113               194.8560
 Red. masses --      1.8361                 2.0221                 1.3765
 Frc consts  --      0.0072                 0.0165                 0.0308
 IR Inten    --      6.4686                 2.4740                 2.6715

                      4                      5                      6
                      A                      A                      A
 Frequencies --    255.5830               303.8837               382.8678
 Red. masses --      1.1276                 2.9127                 2.6297
 Frc consts  --      0.0434                 0.1585                 0.2271
 IR Inten    --     35.6796                19.5097                 4.9672

                      7                      8                      9
                      A                      A                      A
 Frequencies --    510.1774               805.0610               861.1229
 Red. masses --      3.6432                 1.1163                 1.2930
 Frc consts  --      0.5587                 0.4263                 0.5649
 IR Inten    --      1.4109                22.9862               138.7929

                     10                     11                     12
                      A                      A                      A
 Frequencies --    950.0362               994.7728              1082.0244
 Red. masses --      3.0301                 2.3322                 2.8938
 Frc consts  --      1.6114                 1.3597                 1.9962
 IR Inten    --     12.6141                17.9657                 6.7822

                     13                     14                     15
                      A                      A                      A
 Frequencies --   1121.5768              1142.9359              1183.6708
 Red. masses --      1.8423                 2.0543                 1.2966
 Frc consts  --      1.3654                 1.5811                 1.0703
 IR Inten    --     21.7512                65.3683                 3.2925

                     16                     17                     18
                      A                      A                      A
 Frequencies --   1219.0884              1262.0053              1301.5357
 Red. masses --      2.0804                 1.6371                 1.2591
 Frc consts  --      1.8216                 1.5362                 1.2567
 IR Inten    --     86.2437                 2.8750                14.4757

                     19                     20                     21
                      A                      A                      A
 Frequencies --   1336.5761              1389.1694              1446.6507
 Red. masses --      1.0822                 1.2617                 1.4258
 Frc consts  --      1.1390                 1.4346                 1.7581
 IR Inten    --      1.4855                 8.4127                 1.4972

                     22                     23                     24
                      A                      A                      A
 Frequencies --   1487.8554              1505.3486              1510.6641
 Red. masses --      1.1139                 1.0676                 1.0936
 Frc consts  --      1.4528                 1.4253                 1.4704
 IR Inten    --      1.2754                 4.1276                 0.2315

                     25                     26                     27
                      A                      A                      A
 Frequencies --   1523.3745              1533.7513              1670.6965
 Red. masses --      1.0649                 1.0864                 1.0896
 Frc consts  --      1.4560                 1.5058                 1.7919
 IR Inten    --     10.0727                 0.7445                23.4763

                     28                     29                     30
                      A                      A                      A
 Frequencies --   2971.4141              2986.1602              3007.0683
 Red. masses --      1.0712                 1.0388                 1.0630
 Frc consts  --      5.5726                 5.4578                 5.6630
 IR Inten    --     54.5337                51.8120                74.0218

                     31                     32                     33
                      A                      A                      A
 Frequencies --   3036.4802              3062.6951              3084.4850
 Red. masses --      1.1029                 1.0930                 1.0979
 Frc consts  --      5.9914                 6.0404                 6.1543
 IR Inten    --     63.2505                 3.1945                78.8274

                     34                     35                     36
                      A                      A                      A
 Frequencies --   3125.4737              3492.5161              3578.5982
 Red. masses --      1.0973                 1.0503                 1.0920
 Frc consts  --      6.3155                 7.5480                 8.2394
 IR Inten    --     35.1290                 1.5605                 0.0444

 - Thermochemistry -
 -------------------
 Temperature   298.150 Kelvin.  Pressure   1.00000 Atm.
 Atom     1 has atomic number  7 and mass  14.00307

 Molecular mass:    75.06841 amu.
 Principal axes and moments of inertia in atomic units:
                           1         2         3
     Eigenvalues --   123.85321 746.81351 796.10020
           X            0.99962   0.02058  -0.01834
           Y           -0.01968   0.99866   0.04785
           Z            0.01930  -0.04747   0.99869
 This molecule is an asymmetric top.
 Rotational symmetry number  1.
 Rotational temperatures (Kelvin)      0.69933     0.11598     0.10880
 Rotational constants (GHZ):          14.57161     2.41659     2.26698
 Zero-point vibrational energy     332078.8 (Joules/Mol)
                                   79.36874 (Kcal/Mol)
 Warning -- explicit consideration of   7 degrees of freedom as
           vibrations may cause significant error
 Vibrational temperatures:    117.05   169.36   280.35   367.73   437.22
          (Kelvin)            550.86   734.03  1158.30  1238.96  1366.89
                             1431.26  1556.79  1613.70  1644.43  1703.04
                             1754.00  1815.74  1872.62  1923.03  1998.70
                             2081.41  2140.69  2165.86  2173.51  2191.80
                             2206.73  2403.76  4275.20  4296.42  4326.50
                             4368.82  4406.54  4437.89  4496.86  5024.95
                             5148.80

 Zero-point correction=                           0.126482 (Hartree/Particle)
 Thermal correction to Energy=                    0.133192
 Thermal correction to Enthalpy=                  0.134136
 Thermal correction to Gibbs Free Energy=         0.096315
 Sum of electronic and zero-point Energies=           -249.585012
 Sum of electronic and thermal Energies=              -249.578302
 Sum of electronic and thermal Enthalpies=            -249.577358
 Sum of electronic and thermal Free Energies=         -249.615180

                     E (Thermal)             CV                S
                      KCal/Mol        Cal/Mol-Kelvin    Cal/Mol-Kelvin
 Total                   83.579             22.134             79.602
 Electronic               0.000              0.000              0.000
 Translational            0.889              2.981             38.863
 Rotational               0.889              2.981             25.802
 Vibrational             81.802             16.172             14.938
 Vibration     1          0.600              1.962              3.858
 Vibration     2          0.608              1.935              3.138
 Vibration     3          0.636              1.847              2.181
 Vibration     4          0.666              1.753              1.692
 Vibration     5          0.695              1.666              1.395
 Vibration     6          0.752              1.507              1.028
 Vibration     7          0.865              1.227              0.633

                           ! Non-Optimized Parameters !
 Normal termination of Gaussian 16 at Mon Feb 21 19:00:13 2022.

 ----------------------------------------------------------------------
 # M062X/def2tzvp int=(grid=ultrafine) pop=nbo7 polar prop=efg volume g
 uess=read geom=check
 ----------------------------------------------------------------------

 ------
 N1.xyz
 ------
 Structure from the checkpoint file:  "N1_conf-5.chk"
 Charge =  0 Multiplicity = 1

 SCF Done:  E(RM062X) =  -249.667819859     A.U. after   11 cycles

  Exact polarizability:      58.857       2.046      46.858       0.208       0.708      44.675
 Approx polarizability:      58.220       1.741      55.940       1.124      -0.447      53.926

 Summary of Natural Population Analysis:

                                     Natural Population
             Natural    ---------------------------------------------
  Atom No    Charge        Core      Valence    Rydberg      Total
 --------------------------------------------------------------------
    N  1   -0.83180      1.99999     5.80680    0.02500     7.83180
    C  2   -0.24367      1.99999     4.23044    0.01324     6.24367
    C  3   -0.06924      1.99999     4.05108    0.01817     6.06924
    O  4   -0.51016      2.00000     6.48693    0.02323     8.51016
    C  5   -0.25663      1.99999     4.24087    0.01577     6.25663
    H  6    0.35769      0.00000     0.64081    0.00150     0.64231
    H  7    0.34890      0.00000     0.64919    0.00191     0.65110
    H  8    0.16855      0.00000     0.82926    0.00219     0.83145
    H  9    0.18374      0.00000     0.81449    0.00176     0.81626
    H 10    0.16431      0.00000     0.83281    0.00288     0.83569
    H 11    0.17705      0.00000     0.82104    0.00190     0.82295
    H 12    0.16104      0.00000     0.83678    0.00219     0.83896
    H 13    0.15865      0.00000     0.83947    0.00188     0.84135
    H 14    0.19156      0.00000     0.80728    0.00116     0.80844
 ====================================================================
 * Total *  0.00000      9.99997    31.88725    0.11278    42.00000

 1\1\GINC-NOTCH162\SP\RM062X\def2TZVP\C3H9N1O1\U6032257\21-Feb-2022\0\\
 # M062X/def2tzvp int=(grid=ultrafine) pop=nbo7 polar prop=efg volume g
 uess=read geom=check\\N1.xyz\\0,1\N,0,0.2337350762,-1.3218826921,-2.42
 19753856\C,0,-0.2142334497,-0.3553395184,-1.416196919\C,0,0.7480171792
 ,-0.3865768918,-0.2261514874\O,0,0.4468722635,0.5810123071,0.764495707
 3\C,0,-0.6500843085,0.2342084382,1.5845708251\H,0,-0.4571636445,-1.399
 6315219,-3.163107067\H,0,1.0861060466,-0.9853870531,-2.86493954\H,0,-0
 .2901902796,0.686579418,-1.770406915\H,0,-1.2160878235,-0.6538574225,-

 Normal termination of Gaussian 16 at Mon Feb 21 19:00:35 2022.
 Gaussian 16:  ES64L-G16RevC.01  3-Jul-2019

 --------------------------------------------------------------------
 # M062X/def2tzvp int=(grid=ultrafine) nmr=giao guess=read geom=check
 --------------------------------------------------------------------

 ------
 N1.xyz
 ------
 Structure from the checkpoint file:  "N1_conf-5.chk"
 Charge =  0 Multiplicity = 1

                         Standard orientation:
 ---------------------------------------------------------------------
 Center     Atomic      Atomic             Coordinates (Angstroms)
 Number     Number       Type             X           Y           Z
 ---------------------------------------------------------------------
      1          7           0        2.308441   -0.122078    0.252246
      2          6           0        0.984520   -0.382197   -0.318756
      3          6           0       -0.004412    0.658934    0.211500
      4          8           0       -1.298343    0.543264   -0.354770
      5          6           0       -2.060985   -0.519310    0.179481
      6          1           0        2.948248   -0.872012    0.005451
      7          1           0        2.696893    0.725848   -0.155318
      8          1           0        0.940081   -0.369420   -1.420886
      9          1           0        0.673037   -1.382847    0.000794
     10          1           0       -0.041946    0.599510    1.309961
     11          1           0        0.348687    1.662784   -0.053367
     12          1           0       -2.138824   -0.449966    1.275743
     13          1           0       -1.650717   -1.507922   -0.072911
     14          1           0       -3.062542   -0.442106   -0.250382
 ---------------------------------------------------------------------

 SCF Done:  E(RM062X) =  -249.667819859     A.U. after    1 cycles

      1  N    Isotropic =   238.2211   Anisotropy =    33.2089

      2  C    Isotropic =   142.1548   Anisotropy =    38.4712

      3  C    Isotropic =   107.7126   Anisotropy =    82.0879

      4  O    Isotropic =   316.4872   Anisotropy =    57.7193

      5  C    Isotropic =   126.9664   Anisotropy =    86.2800

      6  H    Isotropic =    31.3761   Anisotropy =    14.8531

      7  H    Isotropic =    32.0071   Anisotropy =    13.3774

      8  H    Isotropic =    29.2009   Anisotropy =     6.7723

      9  H    Isotropic =    28.8706   Anisotropy =     5.8157

     10  H    Isotropic =    28.6511   Anisotropy =     3.9768

     11  H    Isotropic =    28.3950   Anisotropy =     5.3512

     12  H    Isotropic =    29.0065   Anisotropy =     8.1575

     13  H    Isotropic =    28.5236   Anisotropy =     8.0602

     14  H    Isotropic =    28.3938   Anisotropy =     8.8473

 The electronic state is 1-A.
 Alpha  occ. eigenvalues --  -19.62482 -14.73175 -10.57735 -10.57585 -10.55849
 Alpha  occ. eigenvalues --   -1.15330  -0.99083  -0.83120  -0.76271  -0.68085
 Alpha  occ. eigenvalues --   -0.57832  -0.56463  -0.54265  -0.51960  -0.49645
 Alpha  occ. eigenvalues --   -0.46342  -0.44398  -0.42058  -0.37969  -0.33131
 Alpha  occ. eigenvalues --   -0.31350
 Alpha virt. eigenvalues --    0.06014   0.08197   0.09796   0.12101   0.12719
 Alpha virt. eigenvalues --    0.14209   0.15075   0.15892   0.16475   0.18762
 Alpha virt. eigenvalues --    0.21372   0.24075   0.24647   0.26278   0.26719

 Mulliken charges:
               1
     1  N   -0.559889
     2  C   -0.162134
     3  C   -0.099736
     4  O   -0.314831
     5  C   -0.244128
     6  H    0.232999
     7  H    0.230549
     8  H    0.130731
     9  H    0.125292
    10  H    0.140996
    11  H    0.126755
    12  H    0.126865
    13  H    0.124430
    14  H    0.142102
 Sum of Mulliken charges =  -0.00000

 Dipole moment (field-independent basis, Debye):
    X=              0.7623    Y=             -1.0121    Z=             -0.4250  Tot=              1.3365
 Quadrupole moment (field-independent basis, Debye-Ang):
   XX=            -29.3987   YY=            -31.3093   ZZ=            -34.9614
   XY=              2.0169   XZ=             -4.8050   YZ=              0.3136

 1\1\GINC-NOTCH162\SP\RM062X\def2TZVP\C3H9N1O1\U6032257\21-Feb-2022\0\\
 # M062X/def2tzvp int=(grid=ultrafine) nmr=giao guess=read geom=check\\
 N1.xyz\\0,1\N,0,0.2337350762,-1.3218826921,-2.4219753856\C,0,-0.214233
 4497,-0.3553395184,-1.416196919\C,0,0.7480171792,-0.3865768918,-0.2261
 514874\O,0,0.4468722635,0.5810123071,0.7644957073\C,0,-0.6500843085,0.
 2342084382,1.5845708251\H,0,-0.4571636445,-1.3996315219,-3.163107067\H
 ,0,1.0861060466,-0.9853870531,-2.86493954\H,0,-0.2901902796,0.68657941
 8,-1.770406915\H,0,-1.2160878235,-0.6538574225,-1.0881579417\H,0,0.768

 Normal termination of Gaussian 16 at Mon Feb 21 19:00:44 2022.
