 Gaussian 16, Revision C.01,

 ----------------------------------------------------------------------
 # B3LYP/6-31G(d,p) empiricaldispersion=GD3BJ int=(grid=ultrafine) opt
 freq=noraman
 ----------------------------------------------------------------------

 ------
 N1.xyz
 ------
 Symbolic Z-matrix:
 Charge =  0 Multiplicity = 1

 SCF Done:  E(RB3LYP) =  -249.709237412     A.U. after   12 cycles
 SCF Done:  E(RB3LYP) =  -249.712064717     A.U. after   11 cycles
 SCF Done:  E(RB3LYP) =  -249.712447235     A.U. after   11 cycles
 SCF Done:  E(RB3LYP) =  -249.712556480     A.U. after    9 cycles
 SCF Done:  E(RB3LYP) =  -249.712597411     A.U. after    9 cycles
 SCF Done:  E(RB3LYP) =  -249.712631304     A.U. after    9 cycles
 SCF Done:  E(RB3LYP) =  -249.712650723     A.U. after    9 cycles
 SCF Done:  E(RB3LYP) =  -249.712771469     A.U. after   10 cycles
 SCF Done:  E(RB3LYP) =  -249.712002205     A.U. after   13 cycles
 SCF Done:  E(RB3LYP) =  -249.714933958     A.U. after   12 cycles
 SCF Done:  E(RB3LYP) =  -249.715696031     A.U. after   11 cycles
 SCF Done:  E(RB3LYP) =  -249.715721089     A.U. after   10 cycles
 SCF Done:  E(RB3LYP) =  -249.715729244     A.U. after    7 cycles
 SCF Done:  E(RB3LYP) =  -249.715737884     A.U. after    8 cycles
 SCF Done:  E(RB3LYP) =  -249.715741741     A.U. after    7 cycles
 SCF Done:  E(RB3LYP) =  -249.715745172     A.U. after    8 cycles
 SCF Done:  E(RB3LYP) =  -249.715745255     A.U. after    6 cycles
 Optimization completed.
    -- Stationary point found.
 Normal termination of Gaussian 16 at Mon Feb 21 19:00:47 2022.

 ----------------------------------------------------------------------
 #N Geom=AllCheck Guess=TCheck SCRF=Check GenChk RB3LYP/6-31G(d,p) Freq
 ----------------------------------------------------------------------

 Structure from the checkpoint file:  "N1_conf-6.chk"
 ------
 N1.xyz
 ------
 Charge =  0 Multiplicity = 1

 SCF Done:  E(RB3LYP) =  -249.715745255     A.U. after    1 cycles

                      1                      2                      3
                      A                      A                      A
 Frequencies --     91.6548               154.2617               235.6147
 Red. masses --      2.8383                 1.9729                 1.3882
 Frc consts  --      0.0140                 0.0277                 0.0454
 IR Inten    --      3.5399                 2.9191                10.8265

                      4                      5                      6
                      A                      A                      A
 Frequencies --    260.1998               321.4002               380.6336
 Red. masses --      1.4140                 1.4870                 2.4955
 Frc consts  --      0.0564                 0.0905                 0.2130
 IR Inten    --     24.3048                33.5668                 9.5474

                      7                      8                      9
                      A                      A                      A
 Frequencies --    530.8301               844.2589               885.1041
 Red. masses --      2.3948                 1.6640                 1.5512
 Frc consts  --      0.3976                 0.6988                 0.7160
 IR Inten    --      5.4419                29.9162               118.1042

                     10                     11                     12
                      A                      A                      A
 Frequencies --    928.6856              1008.8371              1102.1036
 Red. masses --      1.7423                 2.3052                 2.1388
 Frc consts  --      0.8853                 1.3823                 1.5306
 IR Inten    --     16.9552                14.1624                15.6592

                     13                     14                     15
                      A                      A                      A
 Frequencies --   1138.4025              1171.7051              1181.0386
 Red. masses --      1.8828                 2.7408                 1.5975
 Frc consts  --      1.4376                 2.2170                 1.3129
 IR Inten    --     23.5777                96.5928                45.7664

                     16                     17                     18
                      A                      A                      A
 Frequencies --   1192.1305              1253.1267              1268.5217
 Red. masses --      1.3104                 1.7302                 1.1377
 Frc consts  --      1.0973                 1.6008                 1.0787
 IR Inten    --      0.6337                18.4720                 9.9859

                     19                     20                     21
                      A                      A                      A
 Frequencies --   1348.2351              1408.5781              1454.7291
 Red. masses --      1.1625                 1.2866                 1.5391
 Frc consts  --      1.2450                 1.5040                 1.9190
 IR Inten    --      4.9059                25.8031                 9.9687

                     22                     23                     24
                      A                      A                      A
 Frequencies --   1489.7196              1498.9729              1513.4568
 Red. masses --      1.1646                 1.0472                 1.0664
 Frc consts  --      1.5228                 1.3863                 1.4392
 IR Inten    --      4.2362                 4.7531                12.7809

                     25                     26                     27
                      A                      A                      A
 Frequencies --   1518.6539              1535.8576              1661.2579
 Red. masses --      1.0895                 1.0913                 1.0886
 Frc consts  --      1.4804                 1.5167                 1.7701
 IR Inten    --      3.2963                 0.6206                37.7200

                     28                     29                     30
                      A                      A                      A
 Frequencies --   2962.2648              2972.6949              2985.4303
 Red. masses --      1.0723                 1.0490                 1.0451
 Frc consts  --      5.5440                 5.4617                 5.4881
 IR Inten    --     55.9720                35.4286                83.6666

                     31                     32                     33
                      A                      A                      A
 Frequencies --   3020.0512              3027.9531              3064.6608
 Red. masses --      1.1043                 1.1046                 1.0901
 Frc consts  --      5.9344                 5.9669                 6.0326
 IR Inten    --    102.3801                46.6044                44.7052

                     34                     35                     36
                      A                      A                      A
 Frequencies --   3127.2597              3496.5083              3582.4419
 Red. masses --      1.0970                 1.0494                 1.0925
 Frc consts  --      6.3209                 7.5587                 8.2609
 IR Inten    --     32.9528                 2.8357                 0.4360

 - Thermochemistry -
 -------------------
 Temperature   298.150 Kelvin.  Pressure   1.00000 Atm.
 Atom     1 has atomic number  7 and mass  14.00307

 Molecular mass:    75.06841 amu.
 Principal axes and moments of inertia in atomic units:
                           1         2         3
     Eigenvalues --   143.16950 663.60223 737.13979
           X            0.99983   0.00263   0.01834
           Y           -0.00233   0.99987  -0.01607
           Z           -0.01838   0.01603   0.99970
 This molecule is an asymmetric top.
 Rotational symmetry number  1.
 Rotational temperatures (Kelvin)      0.60497     0.13052     0.11750
 Rotational constants (GHZ):          12.60563     2.71961     2.44830
 Zero-point vibrational energy     332664.9 (Joules/Mol)
                                   79.50883 (Kcal/Mol)
 Warning -- explicit consideration of   7 degrees of freedom as
           vibrations may cause significant error
 Vibrational temperatures:    131.87   221.95   339.00   374.37   462.42
          (Kelvin)            547.65   763.75  1214.70  1273.47  1336.17
                             1451.49  1585.68  1637.91  1685.82  1699.25
                             1715.21  1802.97  1825.12  1939.81  2026.63
                             2093.03  2143.37  2156.69  2177.53  2185.00
                             2209.76  2390.18  4262.04  4277.04  4295.37
                             4345.18  4356.55  4409.36  4499.43  5030.70
                             5154.33

 Zero-point correction=                           0.126705 (Hartree/Particle)
 Thermal correction to Energy=                    0.133212
 Thermal correction to Enthalpy=                  0.134156
 Thermal correction to Gibbs Free Energy=         0.096978
 Sum of electronic and zero-point Energies=           -249.589040
 Sum of electronic and thermal Energies=              -249.582534
 Sum of electronic and thermal Enthalpies=            -249.581590
 Sum of electronic and thermal Free Energies=         -249.618767

                     E (Thermal)             CV                S
                      KCal/Mol        Cal/Mol-Kelvin    Cal/Mol-Kelvin
 Total                   83.592             21.839             78.246
 Electronic               0.000              0.000              0.000
 Translational            0.889              2.981             38.863
 Rotational               0.889              2.981             25.752
 Vibrational             81.814             15.878             13.631
 Vibration     1          0.602              1.955              3.624
 Vibration     2          0.620              1.898              2.619
 Vibration     3          0.655              1.786              1.836
 Vibration     4          0.668              1.745              1.660
 Vibration     5          0.707              1.633              1.303
 Vibration     6          0.750              1.511              1.037
 Vibration     7          0.886              1.182              0.585

 Optimization completed.
    -- Stationary point found.
 Normal termination of Gaussian 16 at Mon Feb 21 19:00:59 2022.

 ----------------------------------------------------------------------
 # M062X/def2tzvp int=(grid=ultrafine) pop=nbo7 polar prop=efg volume g
 uess=read geom=check
 ----------------------------------------------------------------------

 ------
 N1.xyz
 ------
 Structure from the checkpoint file:  "N1_conf-6.chk"
 Charge =  0 Multiplicity = 1

 SCF Done:  E(RM062X) =  -249.672198336     A.U. after   11 cycles

  Exact polarizability:      58.233       0.325      49.410       0.505       0.494      44.790
 Approx polarizability:      57.909       0.430      57.260       0.142      -0.152      54.151

 Summary of Natural Population Analysis:

                                     Natural Population
             Natural    ---------------------------------------------
  Atom No    Charge        Core      Valence    Rydberg      Total
 --------------------------------------------------------------------
    N  1   -0.83482      1.99999     5.80917    0.02566     7.83482
    C  2   -0.22988      1.99999     4.21586    0.01402     6.22988
    C  3   -0.07487      1.99999     4.05687    0.01801     6.07487
    O  4   -0.52416      2.00000     6.50081    0.02336     8.52416
    C  5   -0.25023      1.99999     4.23462    0.01562     6.25023
    H  6    0.36244      0.00000     0.63548    0.00208     0.63756
    H  7    0.35313      0.00000     0.64536    0.00151     0.64687
    H  8    0.19022      0.00000     0.80826    0.00153     0.80978
    H  9    0.16884      0.00000     0.82899    0.00217     0.83116
    H 10    0.16073      0.00000     0.83687    0.00240     0.83927
    H 11    0.16645      0.00000     0.83063    0.00292     0.83355
    H 12    0.15938      0.00000     0.83846    0.00216     0.84062
    H 13    0.16228      0.00000     0.83561    0.00210     0.83772
    H 14    0.19050      0.00000     0.80834    0.00116     0.80950
 ====================================================================
 * Total *  0.00000      9.99997    31.88535    0.11468    42.00000

 1\1\GINC-NOTCH098\SP\RM062X\def2TZVP\C3H9N1O1\U6032257\21-Feb-2022\0\\
 # M062X/def2tzvp int=(grid=ultrafine) pop=nbo7 polar prop=efg volume g
 uess=read geom=check\\N1.xyz\\0,1\N,0,-0.4603341419,-1.1834368995,-2.2
 19747423\C,0,0.6234108211,-0.3181587902,-1.7527853038\C,0,0.7347728822
 ,-0.4200431738,-0.2426981425\O,0,-0.46457104,0.0977158815,0.3127229158
 \C,0,-0.5294417442,-0.0573287255,1.7128549148\H,0,-1.3143372311,-0.893
 4973635,-1.7486613075\H,0,-0.6138637031,-1.0437426806,-3.214948107\H,0
 ,1.5682701905,-0.6570107734,-2.1945802431\H,0,0.504090973,0.7477641896

 Normal termination of Gaussian 16 at Mon Feb 21 19:01:21 2022.
 Gaussian 16:  ES64L-G16RevC.01  3-Jul-2019

 --------------------------------------------------------------------
 # M062X/def2tzvp int=(grid=ultrafine) nmr=giao guess=read geom=check
 --------------------------------------------------------------------

 ------
 N1.xyz
 ------
 Structure from the checkpoint file:  "N1_conf-6.chk"
 Charge =  0 Multiplicity = 1

                         Standard orientation:
 ---------------------------------------------------------------------
 Center     Atomic      Atomic             Coordinates (Angstroms)
 Number     Number       Type             X           Y           Z
 ---------------------------------------------------------------------
      1          7           0       -1.864232    0.745088    0.261756
      2          6           0       -1.366203   -0.543614   -0.220401
      3          6           0        0.064950   -0.737403    0.245854
      4          8           0        0.858705    0.261714   -0.376007
      5          6           0        2.193891    0.259258    0.077741
      6          1           0       -1.241880    1.469635   -0.088984
      7          1           0       -2.782577    0.933287   -0.131605
      8          1           0       -1.981405   -1.346755    0.202983
      9          1           0       -1.385432   -0.661091   -1.317914
     10          1           0        0.428874   -1.742254   -0.025139
     11          1           0        0.113395   -0.636327    1.341521
     12          1           0        2.695460   -0.697946   -0.135744
     13          1           0        2.256966    0.444844    1.161249
     14          1           0        2.720758    1.057840   -0.449765
 ---------------------------------------------------------------------

 SCF Done:  E(RM062X) =  -249.672198336     A.U. after    1 cycles

      1  N    Isotropic =   234.8215   Anisotropy =    36.1851

      2  C    Isotropic =   139.5798   Anisotropy =    22.0572

      3  C    Isotropic =   107.1696   Anisotropy =    62.6257

      4  O    Isotropic =   314.4543   Anisotropy =    51.0015

      5  C    Isotropic =   125.2314   Anisotropy =    90.3109

      6  H    Isotropic =    30.9134   Anisotropy =    11.2765

      7  H    Isotropic =    31.6559   Anisotropy =    15.2931

      8  H    Isotropic =    29.4275   Anisotropy =     8.1235

      9  H    Isotropic =    28.8014   Anisotropy =     8.2286

     10  H    Isotropic =    28.5235   Anisotropy =     5.8507

     11  H    Isotropic =    28.5994   Anisotropy =     6.2158

     12  H    Isotropic =    28.7373   Anisotropy =     8.6088

     13  H    Isotropic =    28.7435   Anisotropy =     8.3699

     14  H    Isotropic =    28.2911   Anisotropy =     9.1616

 The electronic state is 1-A.
 Alpha  occ. eigenvalues --  -19.62895 -14.71978 -10.57953 -10.57811 -10.55627
 Alpha  occ. eigenvalues --   -1.15858  -0.98221  -0.83574  -0.75702  -0.67969
 Alpha  occ. eigenvalues --   -0.57821  -0.56690  -0.54400  -0.51177  -0.50436
 Alpha  occ. eigenvalues --   -0.45232  -0.44091  -0.41237  -0.39334  -0.33471
 Alpha  occ. eigenvalues --   -0.30636
 Alpha virt. eigenvalues --    0.06929   0.08684   0.10028   0.12443   0.13357
 Alpha virt. eigenvalues --    0.14244   0.14770   0.15508   0.16569   0.18070
 Alpha virt. eigenvalues --    0.20366   0.22742   0.23245   0.23874   0.26072

 Mulliken charges:
               1
     1  N   -0.559940
     2  C   -0.138923
     3  C   -0.089940
     4  O   -0.327381
     5  C   -0.244742
     6  H    0.243713
     7  H    0.224056
     8  H    0.122863
     9  H    0.125644
    10  H    0.116213
    11  H    0.132768
    12  H    0.126133
    13  H    0.130424
    14  H    0.139112
 Sum of Mulliken charges =  -0.00000

 Dipole moment (field-independent basis, Debye):
    X=              0.4872    Y=             -0.7043    Z=             -0.5067  Tot=              0.9951
 Quadrupole moment (field-independent basis, Debye-Ang):
   XX=            -28.3003   YY=            -31.1068   ZZ=            -34.9540
   XY=              0.3576   XZ=              3.5026   YZ=             -1.3057

 1\1\GINC-NOTCH098\SP\RM062X\def2TZVP\C3H9N1O1\U6032257\21-Feb-2022\0\\
 # M062X/def2tzvp int=(grid=ultrafine) nmr=giao guess=read geom=check\\
 N1.xyz\\0,1\N,0,-0.4603341419,-1.1834368995,-2.219747423\C,0,0.6234108
 211,-0.3181587902,-1.7527853038\C,0,0.7347728822,-0.4200431738,-0.2426
 981425\O,0,-0.46457104,0.0977158815,0.3127229158\C,0,-0.5294417442,-0.
 0573287255,1.7128549148\H,0,-1.3143372311,-0.8934973635,-1.7486613075\
 H,0,-0.6138637031,-1.0437426806,-3.214948107\H,0,1.5682701905,-0.65701
 07734,-2.1945802431\H,0,0.504090973,0.7477641896,-2.0140856738\H,0,1.6

 Normal termination of Gaussian 16 at Mon Feb 21 19:01:31 2022.
