 Gaussian 16, Revision C.01,

 ----------------------------------------------------------------------
 # B3LYP/6-31G(d,p) empiricaldispersion=GD3BJ int=(grid=ultrafine) opt
 freq=noraman
 ----------------------------------------------------------------------

 ------
 N1.xyz
 ------
 Symbolic Z-matrix:
 Charge =  0 Multiplicity = 1

 SCF Done:  E(RB3LYP) =  -249.711369051     A.U. after   12 cycles
 SCF Done:  E(RB3LYP) =  -249.713622374     A.U. after   11 cycles
 SCF Done:  E(RB3LYP) =  -249.713853779     A.U. after   10 cycles
 SCF Done:  E(RB3LYP) =  -249.713915362     A.U. after   11 cycles
 SCF Done:  E(RB3LYP) =  -249.713954347     A.U. after    9 cycles
 SCF Done:  E(RB3LYP) =  -249.713963678     A.U. after    9 cycles
 SCF Done:  E(RB3LYP) =  -249.713965049     A.U. after    7 cycles
 SCF Done:  E(RB3LYP) =  -249.713965532     A.U. after    7 cycles
 SCF Done:  E(RB3LYP) =  -249.713965826     A.U. after    7 cycles
 SCF Done:  E(RB3LYP) =  -249.713965941     A.U. after    7 cycles
 Optimization completed.
    -- Stationary point found.
 Normal termination of Gaussian 16 at Mon Feb 21 18:59:55 2022.

 ----------------------------------------------------------------------
 #N Geom=AllCheck Guess=TCheck SCRF=Check GenChk RB3LYP/6-31G(d,p) Freq
 ----------------------------------------------------------------------

 Structure from the checkpoint file:  "N1_conf-4.chk"
 ------
 N1.xyz
 ------
 Charge =  0 Multiplicity = 1

 SCF Done:  E(RB3LYP) =  -249.713965941     A.U. after    1 cycles

                      1                      2                      3
                      A                      A                      A
 Frequencies --     71.9379               152.6884               233.9150
 Red. masses --      2.2917                 1.5071                 1.7234
 Frc consts  --      0.0070                 0.0207                 0.0556
 IR Inten    --      0.2363                 1.6657                 3.9278

                      4                      5                      6
                      A                      A                      A
 Frequencies --    274.1912               328.5233               444.2006
 Red. masses --      1.3950                 1.9046                 1.8447
 Frc consts  --      0.0618                 0.1211                 0.2145
 IR Inten    --     42.1260                29.5464                 4.9612

                      7                      8                      9
                      A                      A                      A
 Frequencies --    522.7809               832.7273               866.7661
 Red. masses --      2.4310                 2.0139                 1.5461
 Frc consts  --      0.3914                 0.8228                 0.6844
 IR Inten    --     10.6473                31.1093               107.4234

                     10                     11                     12
                      A                      A                      A
 Frequencies --    908.5712               985.7261              1081.5534
 Red. masses --      1.7442                 2.3997                 2.0582
 Frc consts  --      0.8483                 1.3738                 1.4185
 IR Inten    --     25.9116                20.8351                39.7613

                     13                     14                     15
                      A                      A                      A
 Frequencies --   1129.4319              1160.1178              1182.5251
 Red. masses --      2.2253                 2.2553                 1.3320
 Frc consts  --      1.6725                 1.7884                 1.0974
 IR Inten    --     38.7279                34.3807                 2.3353

                     16                     17                     18
                      A                      A                      A
 Frequencies --   1192.1414              1227.7868              1303.1587
 Red. masses --      1.3795                 1.6838                 1.3031
 Frc consts  --      1.1551                 1.4955                 1.3038
 IR Inten    --      4.9036                48.1725                11.1803

                     19                     20                     21
                      A                      A                      A
 Frequencies --   1350.4474              1403.7139              1441.2585
 Red. masses --      1.1572                 1.2479                 1.4792
 Frc consts  --      1.2434                 1.4487                 1.8104
 IR Inten    --      7.9476                16.5463                10.0261

                     22                     23                     24
                      A                      A                      A
 Frequencies --   1483.8926              1499.3862              1501.5263
 Red. masses --      1.1117                 1.0611                 1.1060
 Frc consts  --      1.4423                 1.4055                 1.4691
 IR Inten    --      0.1047                 3.9925                 1.7486

                     25                     26                     27
                      A                      A                      A
 Frequencies --   1524.2713              1531.4802              1659.9842
 Red. masses --      1.0615                 1.0882                 1.0888
 Frc consts  --      1.4530                 1.5038                 1.7677
 IR Inten    --      7.0664                 7.2439                32.8055

                     28                     29                     30
                      A                      A                      A
 Frequencies --   2946.9227              2987.3496              3000.6639
 Red. masses --      1.0727                 1.0418                 1.0655
 Frc consts  --      5.4889                 5.4778                 5.6524
 IR Inten    --     64.3007                53.3272                76.6736

                     31                     32                     33
                      A                      A                      A
 Frequencies --   3039.8358              3053.0525              3106.6970
 Red. masses --      1.1026                 1.0875                 1.0960
 Frc consts  --      6.0032                 5.9722                 6.2323
 IR Inten    --     60.3591                48.1061                33.9027

                     34                     35                     36
                      A                      A                      A
 Frequencies --   3127.2535              3496.5577              3584.5881
 Red. masses --      1.0975                 1.0493                 1.0927
 Frc consts  --      6.3238                 7.5583                 8.2726
 IR Inten    --     31.2479                 3.0971                 0.5437

 - Thermochemistry -
 -------------------
 Temperature   298.150 Kelvin.  Pressure   1.00000 Atm.
 Atom     1 has atomic number  7 and mass  14.00307

 Molecular mass:    75.06841 amu.
 Principal axes and moments of inertia in atomic units:
                           1         2         3
     Eigenvalues --   188.85051 589.18917 628.82138
           X            0.99993  -0.00501   0.01066
           Y            0.00531   0.99958  -0.02838
           Z           -0.01051   0.02843   0.99954
 This molecule is an asymmetric top.
 Rotational symmetry number  1.
 Rotational temperatures (Kelvin)      0.45864     0.14701     0.13774
 Rotational constants (GHZ):           9.55645     3.06309     2.87004
 Zero-point vibrational energy     332786.9 (Joules/Mol)
                                   79.53798 (Kcal/Mol)
 Warning -- explicit consideration of   7 degrees of freedom as
           vibrations may cause significant error
 Vibrational temperatures:    103.50   219.68   336.55   394.50   472.67
          (Kelvin)            639.11   752.17  1198.11  1247.08  1307.23
                             1418.24  1556.11  1625.00  1669.15  1701.39
                             1715.23  1766.51  1874.95  1942.99  2019.63
                             2073.65  2134.99  2157.28  2160.36  2193.09
                             2203.46  2388.35  4239.96  4298.13  4317.29
                             4373.65  4392.66  4469.84  4499.42  5030.77
                             5157.42

 Zero-point correction=                           0.126752 (Hartree/Particle)
 Thermal correction to Energy=                    0.133239
 Thermal correction to Enthalpy=                  0.134183
 Thermal correction to Gibbs Free Energy=         0.096899
 Sum of electronic and zero-point Energies=           -249.587214
 Sum of electronic and thermal Energies=              -249.580727
 Sum of electronic and thermal Enthalpies=            -249.579783
 Sum of electronic and thermal Free Energies=         -249.617067

                     E (Thermal)             CV                S
                      KCal/Mol        Cal/Mol-Kelvin    Cal/Mol-Kelvin
 Total                   83.609             21.832             78.471
 Electronic               0.000              0.000              0.000
 Translational            0.889              2.981             38.863
 Rotational               0.889              2.981             25.751
 Vibrational             81.831             15.870             13.857
 Vibration     1          0.598              1.967              4.100
 Vibration     2          0.619              1.900              2.638
 Vibration     3          0.654              1.789              1.849
 Vibration     4          0.677              1.721              1.570
 Vibration     5          0.712              1.619              1.267
 Vibration     6          0.804              1.374              0.814
 Vibration     7          0.878              1.200              0.604

 Optimization completed.
    -- Stationary point found.
 Normal termination of Gaussian 16 at Mon Feb 21 19:00:04 2022.

 ----------------------------------------------------------------------
 # M062X/def2tzvp int=(grid=ultrafine) pop=nbo7 polar prop=efg volume g
 uess=read geom=check
 ----------------------------------------------------------------------

 ------
 N1.xyz
 ------
 Structure from the checkpoint file:  "N1_conf-4.chk"
 Charge =  0 Multiplicity = 1

 SCF Done:  E(RM062X) =  -249.670020347     A.U. after   11 cycles

  Exact polarizability:      55.491      -0.399      49.055       0.864       0.687      45.691
 Approx polarizability:      57.315      -0.741      56.413       0.500       1.300      55.717

 Summary of Natural Population Analysis:

                                     Natural Population
             Natural    ---------------------------------------------
  Atom No    Charge        Core      Valence    Rydberg      Total
 --------------------------------------------------------------------
    N  1   -0.83604      1.99999     5.80966    0.02639     7.83604
    C  2   -0.24471      1.99999     4.23122    0.01350     6.24471
    C  3   -0.07732      1.99999     4.05948    0.01784     6.07732
    O  4   -0.51843      2.00000     6.49526    0.02318     8.51843
    C  5   -0.25956      1.99999     4.24318    0.01639     6.25956
    H  6    0.35352      0.00000     0.64491    0.00157     0.64648
    H  7    0.36172      0.00000     0.63607    0.00221     0.63828
    H  8    0.19268      0.00000     0.80572    0.00160     0.80732
    H  9    0.15933      0.00000     0.83863    0.00204     0.84067
    H 10    0.19471      0.00000     0.80317    0.00212     0.80529
    H 11    0.16066      0.00000     0.83692    0.00243     0.83934
    H 12    0.15939      0.00000     0.83870    0.00191     0.84061
    H 13    0.16130      0.00000     0.83651    0.00219     0.83870
    H 14    0.19274      0.00000     0.80609    0.00117     0.80726
 ====================================================================
 * Total *  0.00000      9.99997    31.88551    0.11453    42.00000

 1\1\GINC-NOTCH295\SP\RM062X\def2TZVP\C3H9N1O1\U6032257\21-Feb-2022\0\\
 # M062X/def2tzvp int=(grid=ultrafine) pop=nbo7 polar prop=efg volume g
 uess=read geom=check\\N1.xyz\\0,1\N,0,-0.4097315096,-1.1046067826,-2.0
 05931057\C,0,0.4971628194,-0.0499726576,-1.5568399336\C,0,1.0057925034
 ,-0.3946263449,-0.1606222641\O,0,-0.0483898125,-0.5053406527,0.7902140
 523\C,0,-0.54548351,0.7388671731,1.2409198454\H,0,-0.8940842845,-0.821
 639675,-2.8532025005\H,0,-1.1182590397,-1.2375874111,-1.2876955264\H,0
 ,1.3599765905,-0.0002692866,-2.2332031616\H,0,0.0526613063,0.961610550

 Normal termination of Gaussian 16 at Mon Feb 21 19:00:22 2022.
 Gaussian 16:  ES64L-G16RevC.01  3-Jul-2019

 --------------------------------------------------------------------
 # M062X/def2tzvp int=(grid=ultrafine) nmr=giao guess=read geom=check
 --------------------------------------------------------------------

 ------
 N1.xyz
 ------
 Structure from the checkpoint file:  "N1_conf-4.chk"
 Charge =  0 Multiplicity = 1

                         Standard orientation:
 ---------------------------------------------------------------------
 Center     Atomic      Atomic             Coordinates (Angstroms)
 Number     Number       Type             X           Y           Z
 ---------------------------------------------------------------------
      1          7           0       -1.819653   -0.632164   -0.291454
      2          6           0       -1.120826    0.322324    0.567026
      3          6           0        0.031535    0.942778   -0.216566
      4          8           0        0.975047   -0.028616   -0.656824
      5          6           0        1.856386   -0.470525    0.356216
      6          1           0       -2.479514   -1.182826    0.250664
      7          1           0       -1.130825   -1.279082   -0.669038
      8          1           0       -1.811162    1.125478    0.854716
      9          1           0       -0.732540   -0.107008    1.508281
     10          1           0       -0.363073    1.402335   -1.127323
     11          1           0        0.530759    1.718542    0.384979
     12          1           0        1.342942   -1.017020    1.160389
     13          1           0        2.403684    0.370752    0.808866
     14          1           0        2.574363   -1.144555   -0.116824
 ---------------------------------------------------------------------

 SCF Done:  E(RM062X) =  -249.670020347     A.U. after    1 cycles

      1  N    Isotropic =   237.8530   Anisotropy =    39.9244

      2  C    Isotropic =   145.3575   Anisotropy =    40.0710

      3  C    Isotropic =   108.5930   Anisotropy =    62.3928

      4  O    Isotropic =   330.4880   Anisotropy =    32.8051

      5  C    Isotropic =   129.4282   Anisotropy =    83.8932

      6  H    Isotropic =    31.7166   Anisotropy =    15.4166

      7  H    Isotropic =    31.0244   Anisotropy =    11.1918

      8  H    Isotropic =    29.6544   Anisotropy =     8.7576

      9  H    Isotropic =    28.5214   Anisotropy =     7.2096

     10  H    Isotropic =    28.0038   Anisotropy =     8.0342

     11  H    Isotropic =    28.7005   Anisotropy =     6.3735

     12  H    Isotropic =    28.4714   Anisotropy =     8.4278

     13  H    Isotropic =    29.1933   Anisotropy =     8.8584

     14  H    Isotropic =    28.4661   Anisotropy =     9.0596

 The electronic state is 1-A.
 Alpha  occ. eigenvalues --  -19.62913 -14.72208 -10.58035 -10.57972 -10.55830
 Alpha  occ. eigenvalues --   -1.15648  -0.98410  -0.83340  -0.76836  -0.67557
 Alpha  occ. eigenvalues --   -0.57988  -0.56788  -0.54471  -0.51659  -0.50058
 Alpha  occ. eigenvalues --   -0.45704  -0.44078  -0.42625  -0.38549  -0.33702
 Alpha  occ. eigenvalues --   -0.30600
 Alpha virt. eigenvalues --    0.06238   0.09285   0.10359   0.10841   0.13112
 Alpha virt. eigenvalues --    0.13839   0.14682   0.15550   0.16828   0.17774
 Alpha virt. eigenvalues --    0.20662   0.22501   0.24119   0.24725   0.25820

 Mulliken charges:
               1
     1  N   -0.547197
     2  C   -0.159722
     3  C   -0.111451
     4  O   -0.327259
     5  C   -0.247863
     6  H    0.223991
     7  H    0.242742
     8  H    0.129167
     9  H    0.126128
    10  H    0.139458
    11  H    0.130417
    12  H    0.129544
    13  H    0.127868
    14  H    0.144177
 Sum of Mulliken charges =  -0.00000

 Dipole moment (field-independent basis, Debye):
    X=              0.5574    Y=             -0.2929    Z=              2.2133  Tot=              2.3011
 Quadrupole moment (field-independent basis, Debye-Ang):
   XX=            -32.7064   YY=            -29.6127   ZZ=            -34.6458
   XY=              0.4557   XZ=             -1.2814   YZ=             -0.3308

 1\1\GINC-NOTCH295\SP\RM062X\def2TZVP\C3H9N1O1\U6032257\21-Feb-2022\0\\
 # M062X/def2tzvp int=(grid=ultrafine) nmr=giao guess=read geom=check\\
 N1.xyz\\0,1\N,0,-0.4097315096,-1.1046067826,-2.005931057\C,0,0.4971628
 194,-0.0499726576,-1.5568399336\C,0,1.0057925034,-0.3946263449,-0.1606
 222641\O,0,-0.0483898125,-0.5053406527,0.7902140523\C,0,-0.54548351,0.
 7388671731,1.2409198454\H,0,-0.8940842845,-0.821639675,-2.8532025005\H
 ,0,-1.1182590397,-1.2375874111,-1.2876955264\H,0,1.3599765905,-0.00026
 92866,-2.2332031616\H,0,0.0526613063,0.9616105501,-1.543778219\H,0,1.4

 Normal termination of Gaussian 16 at Mon Feb 21 19:00:28 2022.
