 Gaussian 16, Revision C.01,

 ----------------------------------------------------------------------
 # B3LYP/6-31G(d,p) empiricaldispersion=GD3BJ int=(grid=ultrafine) opt
 freq=noraman
 ----------------------------------------------------------------------

 ------
 N1.xyz
 ------
 Symbolic Z-matrix:
 Charge =  0 Multiplicity = 1

 SCF Done:  E(RB3LYP) =  -249.707163423     A.U. after   12 cycles
 SCF Done:  E(RB3LYP) =  -249.709894857     A.U. after   11 cycles
 SCF Done:  E(RB3LYP) =  -249.710136143     A.U. after    9 cycles
 SCF Done:  E(RB3LYP) =  -249.710173160     A.U. after    9 cycles
 SCF Done:  E(RB3LYP) =  -249.710189648     A.U. after    9 cycles
 SCF Done:  E(RB3LYP) =  -249.710197209     A.U. after    9 cycles
 SCF Done:  E(RB3LYP) =  -249.710204902     A.U. after    9 cycles
 SCF Done:  E(RB3LYP) =  -249.710206092     A.U. after    8 cycles
 SCF Done:  E(RB3LYP) =  -249.710206241     A.U. after    7 cycles
 Optimization completed.
    -- Stationary point found.
 Normal termination of Gaussian 16 at Mon Feb 21 19:00:19 2022.

 ----------------------------------------------------------------------
 #N Geom=AllCheck Guess=TCheck SCRF=Check GenChk RB3LYP/6-31G(d,p) Freq
 ----------------------------------------------------------------------

 Structure from the checkpoint file:  "N1_conf-8.chk"
 ------
 N1.xyz
 ------
 Charge =  0 Multiplicity = 1

 SCF Done:  E(RB3LYP) =  -249.710206241     A.U. after    1 cycles

                      1                      2                      3
                      A                      A                      A
 Frequencies --     87.5081               122.8778               196.6200
 Red. masses --      2.7606                 1.8332                 1.2604
 Frc consts  --      0.0125                 0.0163                 0.0287
 IR Inten    --      4.0985                 7.5559                35.8296

                      4                      5                      6
                      A                      A                      A
 Frequencies --    241.9958               295.0556               361.1237
 Red. masses --      1.3805                 1.7571                 2.7647
 Frc consts  --      0.0476                 0.0901                 0.2124
 IR Inten    --      3.9277                 7.2240                 1.1736

                      7                      8                      9
                      A                      A                      A
 Frequencies --    529.3743               807.3603               879.4895
 Red. masses --      2.3170                 1.3146                 2.5394
 Frc consts  --      0.3826                 0.5049                 1.1573
 IR Inten    --      9.9145                84.3145                74.6715

                     10                     11                     12
                      A                      A                      A
 Frequencies --    937.4354              1018.5273              1064.3300
 Red. masses --      1.8007                 1.4191                 2.3129
 Frc consts  --      0.9323                 0.8674                 1.5437
 IR Inten    --     29.5259                 3.5278                13.4004

                     13                     14                     15
                      A                      A                      A
 Frequencies --   1112.4502              1174.2931              1182.3146
 Red. masses --      2.5712                 3.0186                 1.3103
 Frc consts  --      1.8748                 2.4525                 1.0791
 IR Inten    --     25.0902               100.6988                 7.9971

                     16                     17                     18
                      A                      A                      A
 Frequencies --   1215.0517              1241.6568              1311.2301
 Red. masses --      1.5487                 1.5918                 1.1417
 Frc consts  --      1.3472                 1.4459                 1.1565
 IR Inten    --     24.2651                24.6676                 5.7166

                     19                     20                     21
                      A                      A                      A
 Frequencies --   1340.0123              1418.0101              1450.8721
 Red. masses --      1.2337                 1.2903                 1.5136
 Frc consts  --      1.3052                 1.5287                 1.8772
 IR Inten    --      8.1673                37.2917                10.6987

                     22                     23                     24
                      A                      A                      A
 Frequencies --   1491.4891              1498.7040              1510.2459
 Red. masses --      1.1669                 1.0468                 1.0904
 Frc consts  --      1.5294                 1.3853                 1.4653
 IR Inten    --      2.2496                 4.6969                 6.7602

                     25                     26                     27
                      A                      A                      A
 Frequencies --   1514.2385              1538.0551              1668.4803
 Red. masses --      1.0638                 1.0979                 1.0917
 Frc consts  --      1.4371                 1.5302                 1.7906
 IR Inten    --     11.3039                 0.5580                24.7162

                     28                     29                     30
                      A                      A                      A
 Frequencies --   2933.9050              2948.0880              2971.8281
 Red. masses --      1.0657                 1.0642                 1.0579
 Frc consts  --      5.4049                 5.4494                 5.5048
 IR Inten    --     28.8594                95.5304                69.8539

                     31                     32                     33
                      A                      A                      A
 Frequencies --   2976.1373              3014.3393              3082.2565
 Red. masses --      1.0824                 1.1035                 1.0883
 Frc consts  --      5.6488                 5.9074                 6.0919
 IR Inten    --    111.2933                71.0021                30.1965

                     34                     35                     36
                      A                      A                      A
 Frequencies --   3127.6611              3489.6327              3577.9497
 Red. masses --      1.0958                 1.0500                 1.0921
 Frc consts  --      6.3157                 7.5334                 8.2376
 IR Inten    --     33.8535                 1.6724                 0.2916

 - Thermochemistry -
 -------------------
 Temperature   298.150 Kelvin.  Pressure   1.00000 Atm.
 Atom     1 has atomic number  7 and mass  14.00307

 Molecular mass:    75.06841 amu.
 Principal axes and moments of inertia in atomic units:
                           1         2         3
     Eigenvalues --   134.18194 710.85978 765.20086
           X            0.99996   0.00410  -0.00802
           Y           -0.00434   0.99952  -0.03061
           Z            0.00789   0.03064   0.99950
 This molecule is an asymmetric top.
 Rotational symmetry number  1.
 Rotational temperatures (Kelvin)      0.64550     0.12184     0.11319
 Rotational constants (GHZ):          13.44996     2.53881     2.35852
 Zero-point vibrational energy     330950.5 (Joules/Mol)
                                   79.09906 (Kcal/Mol)
 Warning -- explicit consideration of   7 degrees of freedom as
           vibrations may cause significant error
 Vibrational temperatures:    125.90   176.79   282.89   348.18   424.52
          (Kelvin)            519.58   761.65  1161.61  1265.39  1348.76
                             1465.43  1531.33  1600.57  1689.55  1701.09
                             1748.19  1786.47  1886.57  1927.98  2040.20
                             2087.48  2145.92  2156.30  2172.91  2178.65
                             2212.92  2400.57  4221.23  4241.64  4275.80
                             4282.00  4336.96  4434.68  4500.01  5020.80
                             5147.87

 Zero-point correction=                           0.126052 (Hartree/Particle)
 Thermal correction to Energy=                    0.132772
 Thermal correction to Enthalpy=                  0.133716
 Thermal correction to Gibbs Free Energy=         0.095930
 Sum of electronic and zero-point Energies=           -249.584154
 Sum of electronic and thermal Energies=              -249.577434
 Sum of electronic and thermal Enthalpies=            -249.576490
 Sum of electronic and thermal Free Energies=         -249.614276

                     E (Thermal)             CV                S
                      KCal/Mol        Cal/Mol-Kelvin    Cal/Mol-Kelvin
 Total                   83.316             22.125             79.527
 Electronic               0.000              0.000              0.000
 Translational            0.889              2.981             38.863
 Rotational               0.889              2.981             25.793
 Vibrational             81.538             16.164             14.871
 Vibration     1          0.601              1.958              3.715
 Vibration     2          0.610              1.930              3.055
 Vibration     3          0.636              1.845              2.164
 Vibration     4          0.658              1.776              1.788
 Vibration     5          0.689              1.683              1.445
 Vibration     6          0.735              1.552              1.117
 Vibration     7          0.884              1.185              0.589

 Optimization completed.
    -- Stationary point found.
 Normal termination of Gaussian 16 at Mon Feb 21 19:00:32 2022.

 ----------------------------------------------------------------------
 # M062X/def2tzvp int=(grid=ultrafine) pop=nbo7 polar prop=efg volume g
 uess=read geom=check
 ----------------------------------------------------------------------

 ------
 N1.xyz
 ------
 Structure from the checkpoint file:  "N1_conf-8.chk"
 Charge =  0 Multiplicity = 1

 SCF Done:  E(RM062X) =  -249.666991887     A.U. after   11 cycles

  Exact polarizability:      58.264      -0.107      48.783      -0.364      -0.412      46.038
 Approx polarizability:      56.792      -0.448      56.448      -0.335       0.188      56.299

 Summary of Natural Population Analysis:

                                     Natural Population
             Natural    ---------------------------------------------
  Atom No    Charge        Core      Valence    Rydberg      Total
 --------------------------------------------------------------------
    N  1   -0.82134      1.99999     5.79583    0.02551     7.82134
    C  2   -0.23088      1.99999     4.21690    0.01399     6.23088
    C  3   -0.06927      1.99999     4.05117    0.01811     6.06927
    O  4   -0.50212      2.00000     6.47730    0.02483     8.50212
    C  5   -0.25139      1.99999     4.23599    0.01541     6.25139
    H  6    0.35416      0.00000     0.64433    0.00152     0.64584
    H  7    0.34479      0.00000     0.65327    0.00193     0.65521
    H  8    0.16268      0.00000     0.83542    0.00190     0.83732
    H  9    0.19850      0.00000     0.79957    0.00193     0.80150
    H 10    0.15052      0.00000     0.84652    0.00296     0.84948
    H 11    0.15808      0.00000     0.83940    0.00252     0.84192
    H 12    0.15595      0.00000     0.84183    0.00222     0.84405
    H 13    0.15843      0.00000     0.83941    0.00216     0.84157
    H 14    0.19190      0.00000     0.80695    0.00115     0.80810
 ====================================================================
 * Total *  0.00000      9.99997    31.88390    0.11614    42.00000

 1\1\GINC-NOTCH072\SP\RM062X\def2TZVP\C3H9N1O1\U6032257\21-Feb-2022\0\\
 # M062X/def2tzvp int=(grid=ultrafine) pop=nbo7 polar prop=efg volume g
 uess=read geom=check\\N1.xyz\\0,1\N,0,-0.3213272719,-1.2842380744,-2.1
 054148757\C,0,0.686993929,-0.3183840545,-1.6700493738\C,0,0.8153701868
 ,-0.2867693921,-0.1545189522\O,0,-0.3507961673,0.2681997137,0.41241826
 19\C,0,-0.3123612493,0.2785727985,1.8202825844\H,0,-0.4581957211,-1.21
 23083357,-3.1099966467\H,0,0.0103109619,-2.2301958777,-1.9289731259\H,
 0,1.6977609528,-0.4935016289,-2.0828875263\H,0,0.3749732086,0.67792724

 Normal termination of Gaussian 16 at Mon Feb 21 19:00:59 2022.
 Gaussian 16:  ES64L-G16RevC.01  3-Jul-2019

 --------------------------------------------------------------------
 # M062X/def2tzvp int=(grid=ultrafine) nmr=giao guess=read geom=check
 --------------------------------------------------------------------

 ------
 N1.xyz
 ------
 Structure from the checkpoint file:  "N1_conf-8.chk"
 Charge =  0 Multiplicity = 1

                         Standard orientation:
 ---------------------------------------------------------------------
 Center     Atomic      Atomic             Coordinates (Angstroms)
 Number     Number       Type             X           Y           Z
 ---------------------------------------------------------------------
      1          7           0        1.950952   -0.738062    0.110634
      2          6           0        1.331641    0.539833   -0.239463
      3          6           0       -0.090928    0.637184    0.290756
      4          8           0       -0.923064   -0.264297   -0.405114
      5          6           0       -2.246676   -0.256093    0.076188
      6          1           0        2.858538   -0.817550   -0.339988
      7          1           0        2.125277   -0.772194    1.112830
      8          1           0        1.879927    1.429264    0.122541
      9          1           0        1.289158    0.613811   -1.331627
     10          1           0       -0.104193    0.419965    1.374912
     11          1           0       -0.454608    1.672854    0.168261
     12          1           0       -2.715255    0.737328   -0.020369
     13          1           0       -2.299741   -0.555297    1.135486
     14          1           0       -2.815478   -0.972916   -0.520457
 ---------------------------------------------------------------------

 SCF Done:  E(RM062X) =  -249.666991887     A.U. after    1 cycles

      1  N    Isotropic =   231.1173   Anisotropy =    43.0722

      2  C    Isotropic =   138.2673   Anisotropy =    22.4557

      3  C    Isotropic =   106.8174   Anisotropy =    65.3945

      4  O    Isotropic =   309.7829   Anisotropy =    45.1199

      5  C    Isotropic =   125.3436   Anisotropy =    89.8463

      6  H    Isotropic =    31.5022   Anisotropy =    14.8058

      7  H    Isotropic =    32.0772   Anisotropy =    12.7317

      8  H    Isotropic =    28.9359   Anisotropy =     8.7034

      9  H    Isotropic =    29.0515   Anisotropy =     6.5006

     10  H    Isotropic =    28.8306   Anisotropy =     5.3448

     11  H    Isotropic =    28.6051   Anisotropy =     5.5731

     12  H    Isotropic =    28.7976   Anisotropy =     8.4109

     13  H    Isotropic =    28.8083   Anisotropy =     8.2665

     14  H    Isotropic =    28.2613   Anisotropy =     9.0638

 The electronic state is 1-A.
 Alpha  occ. eigenvalues --  -19.62085 -14.72303 -10.57968 -10.57294 -10.55817
 Alpha  occ. eigenvalues --   -1.15334  -0.98427  -0.83483  -0.75278  -0.68214
 Alpha  occ. eigenvalues --   -0.57373  -0.56380  -0.54162  -0.51512  -0.49990
 Alpha  occ. eigenvalues --   -0.46052  -0.43128  -0.41565  -0.38398  -0.32933
 Alpha  occ. eigenvalues --   -0.30526
 Alpha virt. eigenvalues --    0.06252   0.08616   0.10833   0.11116   0.13337
 Alpha virt. eigenvalues --    0.14780   0.14951   0.15325   0.16276   0.18476
 Alpha virt. eigenvalues --    0.19816   0.22825   0.23913   0.25587   0.25787

 Mulliken charges:
               1
     1  N   -0.537758
     2  C   -0.156206
     3  C   -0.086652
     4  O   -0.286926
     5  C   -0.249027
     6  H    0.229032
     7  H    0.224124
     8  H    0.114739
     9  H    0.135049
    10  H    0.110825
    11  H    0.115644
    12  H    0.121549
    13  H    0.124979
    14  H    0.140628
 Sum of Mulliken charges =  -0.00000

 Dipole moment (field-independent basis, Debye):
    X=              0.5579    Y=              1.5894    Z=              1.2494  Tot=              2.0972
 Quadrupole moment (field-independent basis, Debye-Ang):
   XX=            -25.4329   YY=            -34.6845   ZZ=            -31.7505
   XY=              0.6248   XZ=             -0.0518   YZ=             -0.9248

 1\1\GINC-NOTCH072\SP\RM062X\def2TZVP\C3H9N1O1\U6032257\21-Feb-2022\0\\
 # M062X/def2tzvp int=(grid=ultrafine) nmr=giao guess=read geom=check\\
 N1.xyz\\0,1\N,0,-0.3213272719,-1.2842380744,-2.1054148757\C,0,0.686993
 929,-0.3183840545,-1.6700493738\C,0,0.8153701868,-0.2867693921,-0.1545
 189522\O,0,-0.3507961673,0.2681997137,0.4124182619\C,0,-0.3123612493,0
 .2785727985,1.8202825844\H,0,-0.4581957211,-1.2123083357,-3.1099966467
 \H,0,0.0103109619,-2.2301958777,-1.9289731259\H,0,1.6977609528,-0.4935
 016289,-2.0828875263\H,0,0.3749732086,0.6779272408,-2.0018746348\H,0,0

 Normal termination of Gaussian 16 at Mon Feb 21 19:01:09 2022.
