 Gaussian 16, Revision C.01,

 ----------------------------------------------------------------------
 # B3LYP/6-31G(d,p) empiricaldispersion=GD3BJ int=(grid=ultrafine) opt
 freq=noraman
 ----------------------------------------------------------------------

 ------
 N1.xyz
 ------
 Symbolic Z-matrix:
 Charge =  0 Multiplicity = 1

 SCF Done:  E(RB3LYP) =  -249.713930399     A.U. after   12 cycles
 SCF Done:  E(RB3LYP) =  -249.715975529     A.U. after   10 cycles
 SCF Done:  E(RB3LYP) =  -249.716207861     A.U. after   10 cycles
 SCF Done:  E(RB3LYP) =  -249.716227547     A.U. after    9 cycles
 SCF Done:  E(RB3LYP) =  -249.716235000     A.U. after    9 cycles
 SCF Done:  E(RB3LYP) =  -249.716236847     A.U. after    7 cycles
 SCF Done:  E(RB3LYP) =  -249.716237202     A.U. after    7 cycles
 Optimization completed.
    -- Stationary point found.
 Normal termination of Gaussian 16 at Mon Feb 21 18:59:22 2022.

 ----------------------------------------------------------------------
 #N Geom=AllCheck Guess=TCheck SCRF=Check GenChk RB3LYP/6-31G(d,p) Freq
 ----------------------------------------------------------------------

 Structure from the checkpoint file:  "N1_conf-1.chk"
 ------
 N1.xyz
 ------
 Charge =  0 Multiplicity = 1

 SCF Done:  E(RB3LYP) =  -249.716237202     A.U. after    1 cycles

                      1                      2                      3
                      A                      A                      A
 Frequencies --     91.6152               147.0426               232.5980
 Red. masses --      2.7866                 2.0063                 1.5191
 Frc consts  --      0.0138                 0.0256                 0.0484
 IR Inten    --      1.5596                 2.4763                 4.1591

                      4                      5                      6
                      A                      A                      A
 Frequencies --    252.5741               340.5885               368.8523
 Red. masses --      1.4113                 1.3293                 2.3874
 Frc consts  --      0.0530                 0.0909                 0.1914
 IR Inten    --     14.0867                45.4983                 3.8896

                      7                      8                      9
                      A                      A                      A
 Frequencies --    537.1032               815.7022               896.0280
 Red. masses --      2.2337                 1.6296                 2.5634
 Frc consts  --      0.3797                 0.6388                 1.2126
 IR Inten    --      7.1841                23.5752                59.8399

                     10                     11                     12
                      A                      A                      A
 Frequencies --    930.9088              1002.5341              1059.6729
 Red. masses --      1.3320                 1.7432                 2.5303
 Frc consts  --      0.6801                 1.0323                 1.6740
 IR Inten    --    129.6802                10.3876                58.5028

                     13                     14                     15
                      A                      A                      A
 Frequencies --   1143.2835              1168.6687              1184.2123
 Red. masses --      2.0335                 3.3245                 1.3728
 Frc consts  --      1.5660                 2.6752                 1.1343
 IR Inten    --      4.1750               110.5795                20.0662

                     16                     17                     18
                      A                      A                      A
 Frequencies --   1201.6839              1249.2105              1283.7609
 Red. masses --      1.5842                 1.5114                 1.2304
 Frc consts  --      1.3478                 1.3896                 1.1947
 IR Inten    --     20.7095                18.7215                 7.6622

                     19                     20                     21
                      A                      A                      A
 Frequencies --   1393.8904              1401.9688              1422.1212
 Red. masses --      1.2919                 1.2102                 1.3638
 Frc consts  --      1.4788                 1.4015                 1.6251
 IR Inten    --     23.9768                 0.6487                15.8478

                     22                     23                     24
                      A                      A                      A
 Frequencies --   1490.3400              1492.8592              1498.8312
 Red. masses --      1.1532                 1.0940                 1.0479
 Frc consts  --      1.5091                 1.4365                 1.3870
 IR Inten    --      1.9122                 2.4718                 4.9213

                     25                     26                     27
                      A                      A                      A
 Frequencies --   1515.4626              1538.1121              1677.9297
 Red. masses --      1.0622                 1.0928                 1.0870
 Frc consts  --      1.4373                 1.5232                 1.8031
 IR Inten    --     11.1097                 0.7294                19.3085

                     28                     29                     30
                      A                      A                      A
 Frequencies --   2948.4396              2980.9749              2984.2133
 Red. masses --      1.0555                 1.0475                 1.0930
 Frc consts  --      5.4061                 5.4844                 5.7351
 IR Inten    --     45.6604                70.7891                75.2821

                     31                     32                     33
                      A                      A                      A
 Frequencies --   3026.2623              3049.2226              3092.1265
 Red. masses --      1.1043                 1.0609                 1.1059
 Frc consts  --      5.9585                 5.8117                 6.2296
 IR Inten    --     65.5046                48.0881                34.7734

                     34                     35                     36
                      A                      A                      A
 Frequencies --   3127.8573              3478.8044              3563.6549
 Red. masses --      1.0969                 1.0497                 1.0912
 Frc consts  --      6.3226                 7.4847                 8.1645
 IR Inten    --     32.2495                 2.0806                 0.7668

 - Thermochemistry -
 -------------------
 Temperature   298.150 Kelvin.  Pressure   1.00000 Atm.
 Atom     1 has atomic number  7 and mass  14.00307

 Molecular mass:    75.06841 amu.
 Principal axes and moments of inertia in atomic units:
                           1         2         3
     Eigenvalues --   144.00978 673.23179 745.95796
           X            0.99997   0.00627  -0.00431
           Y           -0.00637   0.99969  -0.02399
           Z            0.00416   0.02402   0.99970
 This molecule is an asymmetric top.
 Rotational symmetry number  1.
 Rotational temperatures (Kelvin)      0.60144     0.12865     0.11611
 Rotational constants (GHZ):          12.53207     2.68071     2.41936
 Zero-point vibrational energy     332496.7 (Joules/Mol)
                                   79.46862 (Kcal/Mol)
 Warning -- explicit consideration of   7 degrees of freedom as
           vibrations may cause significant error
 Vibrational temperatures:    131.81   211.56   334.66   363.40   490.03
          (Kelvin)            530.70   772.77  1173.61  1289.18  1339.37
                             1442.42  1524.63  1644.93  1681.45  1703.82
                             1728.96  1797.34  1847.05  2005.50  2017.12
                             2046.12  2144.27  2147.89  2156.48  2180.41
                             2213.00  2414.17  4242.15  4288.96  4293.62
                             4354.12  4387.15  4448.88  4500.29  5005.22
                             5127.30

 Zero-point correction=                           0.126641 (Hartree/Particle)
 Thermal correction to Energy=                    0.133169
 Thermal correction to Enthalpy=                  0.134113
 Thermal correction to Gibbs Free Energy=         0.096859
 Sum of electronic and zero-point Energies=           -249.589596
 Sum of electronic and thermal Energies=              -249.583068
 Sum of electronic and thermal Enthalpies=            -249.582124
 Sum of electronic and thermal Free Energies=         -249.619378

                     E (Thermal)             CV                S
                      KCal/Mol        Cal/Mol-Kelvin    Cal/Mol-Kelvin
 Total                   83.565             21.891             78.408
 Electronic               0.000              0.000              0.000
 Translational            0.889              2.981             38.863
 Rotational               0.889              2.981             25.784
 Vibrational             81.787             15.930             13.761
 Vibration     1          0.602              1.955              3.625
 Vibration     2          0.617              1.906              2.710
 Vibration     3          0.653              1.791              1.859
 Vibration     4          0.664              1.758              1.713
 Vibration     5          0.720              1.594              1.209
 Vibration     6          0.741              1.536              1.085
 Vibration     7          0.892              1.168              0.572

 Optimization completed.
    -- Stationary point found.
 Normal termination of Gaussian 16 at Mon Feb 21 18:59:32 2022.

 ----------------------------------------------------------------------
 # M062X/def2tzvp int=(grid=ultrafine) pop=nbo7 polar prop=efg volume g
 uess=read geom=check
 ----------------------------------------------------------------------

 ------
 N1.xyz
 ------
 Structure from the checkpoint file:  "N1_conf-1.chk"
 Charge =  0 Multiplicity = 1

 SCF Done:  E(RM062X) =  -249.671914126     A.U. after   11 cycles

  Exact polarizability:      57.193       0.386      49.373       0.266      -0.396      45.905
 Approx polarizability:      56.458       0.341      57.459       0.799       0.398      56.132

 Summary of Natural Population Analysis:

                                     Natural Population
             Natural    ---------------------------------------------
  Atom No    Charge        Core      Valence    Rydberg      Total
 --------------------------------------------------------------------
    N  1   -0.82093      1.99999     5.79507    0.02587     7.82093
    C  2   -0.23268      1.99999     4.21700    0.01568     6.23268
    C  3   -0.08413      1.99999     4.06698    0.01716     6.08413
    O  4   -0.52252      2.00000     6.49870    0.02382     8.52252
    C  5   -0.25034      1.99999     4.23473    0.01561     6.25034
    H  6    0.36068      0.00000     0.63730    0.00202     0.63932
    H  7    0.34329      0.00000     0.65471    0.00200     0.65671
    H  8    0.19071      0.00000     0.80783    0.00147     0.80929
    H  9    0.19328      0.00000     0.80479    0.00193     0.80672
    H 10    0.14964      0.00000     0.84723    0.00314     0.85036
    H 11    0.16089      0.00000     0.83654    0.00257     0.83911
    H 12    0.16059      0.00000     0.83726    0.00215     0.83941
    H 13    0.15991      0.00000     0.83799    0.00210     0.84009
    H 14    0.19160      0.00000     0.80724    0.00116     0.80840
 ====================================================================
 * Total *  0.00000      9.99997    31.88336    0.11667    42.00000

 1\1\GINC-NOTCH225\SP\RM062X\def2TZVP\C3H9N1O1\U6032257\21-Feb-2022\0\\
 # M062X/def2tzvp int=(grid=ultrafine) pop=nbo7 polar prop=efg volume g
 uess=read geom=check\\N1.xyz\\0,1\N,0,-0.3676799404,-1.2216541481,-2.0
 985145713\C,0,0.6960671597,-0.3187505821,-1.6621463761\C,0,0.879342045
 5,-0.2196823439,-0.1504803215\O,0,-0.3427949799,0.2356629337,0.4027874
 628\C,0,-0.3190341322,0.3008627819,1.8111694587\H,0,-1.2176110349,-0.9
 631748059,-1.6010094447\H,0,-0.1495229725,-2.1698265157,-1.7962947233\
 H,0,1.6433057927,-0.6342557264,-2.1149584583\H,0,0.4746237813,0.682694

 Normal termination of Gaussian 16 at Mon Feb 21 18:59:52 2022.
 Gaussian 16:  ES64L-G16RevC.01  3-Jul-2019

 --------------------------------------------------------------------
 # M062X/def2tzvp int=(grid=ultrafine) nmr=giao guess=read geom=check
 --------------------------------------------------------------------

 ------
 N1.xyz
 ------
 Structure from the checkpoint file:  "N1_conf-1.chk"
 Charge =  0 Multiplicity = 1

                         Standard orientation:
 ---------------------------------------------------------------------
 Center     Atomic      Atomic             Coordinates (Angstroms)
 Number     Number       Type             X           Y           Z
 ---------------------------------------------------------------------
      1          7           0        1.964979   -0.752077    0.092192
      2          6           0        1.371042    0.543937   -0.231531
      3          6           0       -0.065140    0.733935    0.247866
      4          8           0       -0.856392   -0.277658   -0.350183
      5          6           0       -2.200601   -0.248403    0.074787
      6          1           0        1.327345   -1.475783   -0.233965
      7          1           0        2.008151   -0.859206    1.104427
      8          1           0        1.994841    1.340477    0.190657
      9          1           0        1.390213    0.666262   -1.320752
     10          1           0       -0.113732    0.654523    1.349044
     11          1           0       -0.441682    1.734752   -0.026371
     12          1           0       -2.689557    0.704374   -0.181913
     13          1           0       -2.288107   -0.395035    1.163062
     14          1           0       -2.723001   -1.061374   -0.434797
 ---------------------------------------------------------------------

 SCF Done:  E(RM062X) =  -249.671914126     A.U. after    1 cycles

      1  N    Isotropic =   234.2248   Anisotropy =    46.9219

      2  C    Isotropic =   138.7185   Anisotropy =    25.5749

      3  C    Isotropic =   103.8286   Anisotropy =    56.6532

      4  O    Isotropic =   314.4519   Anisotropy =    47.4664

      5  C    Isotropic =   125.1009   Anisotropy =    90.2945

      6  H    Isotropic =    30.6756   Anisotropy =    11.5763

      7  H    Isotropic =    32.3200   Anisotropy =    13.8072

      8  H    Isotropic =    29.3821   Anisotropy =     7.9627

      9  H    Isotropic =    29.1282   Anisotropy =     7.7298

     10  H    Isotropic =    28.9709   Anisotropy =     6.1968

     11  H    Isotropic =    28.5752   Anisotropy =     5.1565

     12  H    Isotropic =    28.6959   Anisotropy =     8.6007

     13  H    Isotropic =    28.7845   Anisotropy =     8.3943

     14  H    Isotropic =    28.2367   Anisotropy =     9.1253

 The electronic state is 1-A.
 Alpha  occ. eigenvalues --  -19.63226 -14.72036 -10.58274 -10.58150 -10.55672
 Alpha  occ. eigenvalues --   -1.16225  -0.98309  -0.83603  -0.75921  -0.68753
 Alpha  occ. eigenvalues --   -0.58064  -0.56138  -0.54291  -0.53380  -0.48991
 Alpha  occ. eigenvalues --   -0.46100  -0.43322  -0.42041  -0.39734  -0.33802
 Alpha  occ. eigenvalues --   -0.30745
 Alpha virt. eigenvalues --    0.06420   0.08875   0.09996   0.11391   0.12904
 Alpha virt. eigenvalues --    0.14039   0.14657   0.15600   0.17303   0.17503
 Alpha virt. eigenvalues --    0.19504   0.22300   0.23848   0.24652   0.25569

 Mulliken charges:
               1
     1  N   -0.531841
     2  C   -0.153480
     3  C   -0.110133
     4  O   -0.314807
     5  C   -0.244809
     6  H    0.238418
     7  H    0.217298
     8  H    0.130768
     9  H    0.140224
    10  H    0.116688
    11  H    0.116184
    12  H    0.127724
    13  H    0.126795
    14  H    0.140969
 Sum of Mulliken charges =  -0.00000

 Dipole moment (field-independent basis, Debye):
    X=             -1.8194    Y=              0.8966    Z=              1.3830  Tot=              2.4550
 Quadrupole moment (field-independent basis, Debye-Ang):
   XX=            -35.6153   YY=            -31.3933   ZZ=            -31.8492
   XY=              2.0547   XZ=              1.4944   YZ=             -0.7949

 1\1\GINC-NOTCH225\SP\RM062X\def2TZVP\C3H9N1O1\U6032257\21-Feb-2022\0\\
 # M062X/def2tzvp int=(grid=ultrafine) nmr=giao guess=read geom=check\\
 N1.xyz\\0,1\N,0,-0.3676799404,-1.2216541481,-2.0985145713\C,0,0.696067
 1597,-0.3187505821,-1.6621463761\C,0,0.8793420455,-0.2196823439,-0.150
 4803215\O,0,-0.3427949799,0.2356629337,0.4027874628\C,0,-0.3190341322,
 0.3008627819,1.8111694587\H,0,-1.2176110349,-0.9631748059,-1.601009444
 7\H,0,-0.1495229725,-2.1698265157,-1.7962947233\H,0,1.6433057927,-0.63
 42557264,-2.1149584583\H,0,0.4746237813,0.682694318,-2.0491935565\H,0,

 Normal termination of Gaussian 16 at Mon Feb 21 19:00:00 2022.
