 Gaussian 16, Revision C.01,

 ----------------------------------------------------------------------
 # B3LYP/6-31G(d,p) empiricaldispersion=GD3BJ int=(grid=ultrafine) opt
 freq=noraman
 ----------------------------------------------------------------------

 ------
 N1.xyz
 ------
 Symbolic Z-matrix:
 Charge =  0 Multiplicity = 1

 SCF Done:  E(RB3LYP) =  -249.710811466     A.U. after   12 cycles
 SCF Done:  E(RB3LYP) =  -249.712746005     A.U. after   11 cycles
 SCF Done:  E(RB3LYP) =  -249.712903910     A.U. after    9 cycles
 SCF Done:  E(RB3LYP) =  -249.712926744     A.U. after    9 cycles
 SCF Done:  E(RB3LYP) =  -249.712938350     A.U. after    9 cycles
 SCF Done:  E(RB3LYP) =  -249.712940947     A.U. after    8 cycles
 SCF Done:  E(RB3LYP) =  -249.712941420     A.U. after    7 cycles
 Optimization completed.
    -- Stationary point found.
 Normal termination of Gaussian 16 at Mon Feb 21 18:59:48 2022.

 ----------------------------------------------------------------------
 #N Geom=AllCheck Guess=TCheck SCRF=Check GenChk RB3LYP/6-31G(d,p) Freq
 ----------------------------------------------------------------------

 Structure from the checkpoint file:  "N1_conf-3.chk"
 ------
 N1.xyz
 ------
 Charge =  0 Multiplicity = 1

 SCF Done:  E(RB3LYP) =  -249.712941420     A.U. after    1 cycles

                      1                      2                      3
                      A                      A                      A
 Frequencies --    100.9760               122.0297               197.7322
 Red. masses --      2.4703                 1.9808                 2.7239
 Frc consts  --      0.0148                 0.0174                 0.0627
 IR Inten    --      4.3499                 6.5497                 3.7976

                      4                      5                      6
                      A                      A                      A
 Frequencies --    239.8241               251.4681               437.9241
 Red. masses --      1.2704                 1.1208                 3.3767
 Frc consts  --      0.0430                 0.0418                 0.3815
 IR Inten    --      2.7420                50.9328                 0.5410

                      7                      8                      9
                      A                      A                      A
 Frequencies --    441.8525               821.0119               871.3698
 Red. masses --      3.6895                 1.1093                 1.2623
 Frc consts  --      0.4244                 0.4406                 0.5647
 IR Inten    --      4.3974                33.5337               127.2228

                     10                     11                     12
                      A                      A                      A
 Frequencies --    993.2912              1002.7418              1086.8596
 Red. masses --      2.0809                 2.9414                 2.6367
 Frc consts  --      1.2096                 1.7425                 1.8351
 IR Inten    --     11.9333                14.7486                 4.3686

                     13                     14                     15
                      A                      A                      A
 Frequencies --   1131.1882              1175.1144              1181.7007
 Red. masses --      1.7248                 3.7447                 1.3125
 Frc consts  --      1.3004                 3.0467                 1.0798
 IR Inten    --     13.5623               123.5490                12.0388

                     16                     17                     18
                      A                      A                      A
 Frequencies --   1220.0970              1236.8941              1296.4480
 Red. masses --      1.4672                 1.6013                 1.2965
 Frc consts  --      1.2869                 1.4434                 1.2839
 IR Inten    --     19.4977                41.1242                 3.1403

                     19                     20                     21
                      A                      A                      A
 Frequencies --   1326.0497              1388.4638              1456.3911
 Red. masses --      1.1242                 1.3012                 1.4760
 Frc consts  --      1.1647                 1.4780                 1.8445
 IR Inten    --      3.2639                21.2256                 3.6366

                     22                     23                     24
                      A                      A                      A
 Frequencies --   1493.6151              1498.6987              1517.6930
 Red. masses --      1.1878                 1.0465                 1.0636
 Frc consts  --      1.5612                 1.3849                 1.4434
 IR Inten    --      2.1423                 4.6715                 8.9522

                     25                     26                     27
                      A                      A                      A
 Frequencies --   1530.1782              1546.3286              1670.6517
 Red. masses --      1.0826                 1.0916                 1.0902
 Frc consts  --      1.4935                 1.5379                 1.7927
 IR Inten    --      3.3603                 0.9065                24.3053

                     28                     29                     30
                      A                      A                      A
 Frequencies --   2949.5131              2976.6429              2978.7469
 Red. masses --      1.0645                 1.0654                 1.0464
 Frc consts  --      5.4561                 5.5620                 5.4703
 IR Inten    --     57.0555                70.9672                50.0447

                     31                     32                     33
                      A                      A                      A
 Frequencies --   3012.1281              3022.2734              3086.7054
 Red. masses --      1.0916                 1.1042                 1.0924
 Frc consts  --      5.8354                 5.9425                 6.1321
 IR Inten    --     86.5439                62.3348                39.0334

                     34                     35                     36
                      A                      A                      A
 Frequencies --   3126.5472              3493.8960              3579.9937
 Red. masses --      1.0966                 1.0505                 1.0917
 Frc consts  --      6.3155                 7.5556                 8.2437
 IR Inten    --     35.4681                 1.2880                 0.0405

 - Thermochemistry -
 -------------------
 Temperature   298.150 Kelvin.  Pressure   1.00000 Atm.
 Atom     1 has atomic number  7 and mass  14.00307

 Molecular mass:    75.06841 amu.
 Principal axes and moments of inertia in atomic units:
                           1         2         3
     Eigenvalues --    84.18999 844.41273 888.73923
           X            0.99981  -0.01838   0.00639
           Y            0.01806   0.99875   0.04671
           Z           -0.00724  -0.04659   0.99889
 This molecule is an asymmetric top.
 Rotational symmetry number  1.
 Rotational temperatures (Kelvin)      1.02879     0.10257     0.09746
 Rotational constants (GHZ):          21.43653     2.13727     2.03068
 Zero-point vibrational energy     331742.7 (Joules/Mol)
                                   79.28840 (Kcal/Mol)
 Warning -- explicit consideration of   7 degrees of freedom as
           vibrations may cause significant error
 Vibrational temperatures:    145.28   175.57   284.49   345.05   361.81
          (Kelvin)            630.08   635.73  1181.25  1253.71  1429.12
                             1442.72  1563.75  1627.53  1690.73  1700.20
                             1755.45  1779.61  1865.30  1907.89  1997.69
                             2095.42  2148.98  2156.29  2183.62  2201.59
                             2224.82  2403.70  4243.69  4282.73  4285.75
                             4333.78  4348.38  4441.08  4498.40  5026.94
                             5150.81

 Zero-point correction=                           0.126354 (Hartree/Particle)
 Thermal correction to Energy=                    0.133090
 Thermal correction to Enthalpy=                  0.134034
 Thermal correction to Gibbs Free Energy=         0.096349
 Sum of electronic and zero-point Energies=           -249.586587
 Sum of electronic and thermal Energies=              -249.579852
 Sum of electronic and thermal Enthalpies=            -249.578908
 Sum of electronic and thermal Free Energies=         -249.616593

                     E (Thermal)             CV                S
                      KCal/Mol        Cal/Mol-Kelvin    Cal/Mol-Kelvin
 Total                   83.515             22.143             79.315
 Electronic               0.000              0.000              0.000
 Translational            0.889              2.981             38.863
 Rotational               0.889              2.981             25.649
 Vibrational             81.738             16.181             14.802
 Vibration     1          0.604              1.948              3.435
 Vibration     2          0.610              1.931              3.068
 Vibration     3          0.637              1.843              2.154
 Vibration     4          0.657              1.780              1.804
 Vibration     5          0.663              1.760              1.720
 Vibration     6          0.798              1.388              0.833
 Vibration     7          0.802              1.379              0.821

 Optimization completed.
    -- Stationary point found.
 Normal termination of Gaussian 16 at Mon Feb 21 18:59:56 2022.

 ----------------------------------------------------------------------
 # M062X/def2tzvp int=(grid=ultrafine) pop=nbo7 polar prop=efg volume g
 uess=read geom=check
 ----------------------------------------------------------------------

 ------
 N1.xyz
 ------
 Structure from the checkpoint file:  "N1_conf-3.chk"
 Charge =  0 Multiplicity = 1

 SCF Done:  E(RM062X) =  -249.669628069     A.U. after   11 cycles

  Exact polarizability:      60.810       0.199      46.897      -0.076       0.460      44.621
 Approx polarizability:      58.040       0.882      56.205      -0.373       0.892      53.818

 Summary of Natural Population Analysis:

                                     Natural Population
             Natural    ---------------------------------------------
  Atom No    Charge        Core      Valence    Rydberg      Total
 --------------------------------------------------------------------
    N  1   -0.83205      1.99999     5.80742    0.02464     7.83205
    C  2   -0.22815      1.99999     4.21431    0.01384     6.22815
    C  3   -0.06657      1.99999     4.04875    0.01782     6.06657
    O  4   -0.51182      2.00000     6.48833    0.02350     8.51182
    C  5   -0.25089      1.99999     4.23550    0.01540     6.25089
    H  6    0.35778      0.00000     0.64079    0.00143     0.64222
    H  7    0.34809      0.00000     0.65009    0.00182     0.65191
    H  8    0.16909      0.00000     0.82882    0.00209     0.83091
    H  9    0.19243      0.00000     0.80578    0.00179     0.80757
    H 10    0.16492      0.00000     0.83237    0.00271     0.83508
    H 11    0.14776      0.00000     0.84946    0.00277     0.85224
    H 12    0.15869      0.00000     0.83916    0.00215     0.84131
    H 13    0.16025      0.00000     0.83757    0.00218     0.83975
    H 14    0.19046      0.00000     0.80838    0.00116     0.80954
 ====================================================================
 * Total *  0.00000      9.99997    31.88673    0.11330    42.00000

 1\1\GINC-NOTCH218\SP\RM062X\def2TZVP\C3H9N1O1\U6032257\21-Feb-2022\0\\
 # M062X/def2tzvp int=(grid=ultrafine) pop=nbo7 polar prop=efg volume g
 uess=read geom=check\\N1.xyz\\0,1\N,0,0.3283080172,-1.4286801931,-2.44
 89774266\C,0,0.2659570557,-0.213270532,-1.632794501\C,0,0.0786768314,-
 0.5913848694,-0.1703153816\O,0,0.0461953931,0.5974819843,0.5942427643\
 C,0,-0.1423887396,0.3517677003,1.9693606609\H,0,0.3002673446,-1.183556
 702,-3.4347081363\H,0,1.2200883973,-1.8962934107,-2.3010134322\H,0,1.1
 467660759,0.4452977009,-1.711247404\H,0,-0.6004581268,0.3759690425,-1.

 Normal termination of Gaussian 16 at Mon Feb 21 19:00:13 2022.
 Gaussian 16:  ES64L-G16RevC.01  3-Jul-2019

 --------------------------------------------------------------------
 # M062X/def2tzvp int=(grid=ultrafine) nmr=giao guess=read geom=check
 --------------------------------------------------------------------

 ------
 N1.xyz
 ------
 Structure from the checkpoint file:  "N1_conf-3.chk"
 Charge =  0 Multiplicity = 1

                         Standard orientation:
 ---------------------------------------------------------------------
 Center     Atomic      Atomic             Coordinates (Angstroms)
 Number     Number       Type             X           Y           Z
 ---------------------------------------------------------------------
      1          7           0       -2.397379   -0.345950    0.078606
      2          6           0       -1.212988    0.511880   -0.014179
      3          6           0        0.042932   -0.345317    0.054876
      4          8           0        1.166733    0.504779   -0.060950
      5          6           0        2.386613   -0.197942    0.009504
      6          1           0       -3.229946    0.226634    0.185921
      7          1           0       -2.519219   -0.858489   -0.792191
      8          1           0       -1.159383    1.134000   -0.922906
      9          1           0       -1.211020    1.196811    0.840156
     10          1           0        0.058539   -0.902941    1.004406
     11          1           0        0.037674   -1.092573   -0.759754
     12          1           0        2.480210   -0.937913   -0.801581
     13          1           0        2.499457   -0.727686    0.968679
     14          1           0        3.192142    0.533857   -0.086582
 ---------------------------------------------------------------------

 SCF Done:  E(RM062X) =  -249.669628069     A.U. after    1 cycles

      1  N    Isotropic =   237.8992   Anisotropy =    33.0933

      2  C    Isotropic =   139.6021   Anisotropy =    40.7364

      3  C    Isotropic =   106.1714   Anisotropy =    85.5831

      4  O    Isotropic =   314.6621   Anisotropy =    34.0259

      5  C    Isotropic =   125.2928   Anisotropy =    90.2289

      6  H    Isotropic =    31.4069   Anisotropy =    14.7952

      7  H    Isotropic =    31.9714   Anisotropy =    13.2371

      8  H    Isotropic =    28.9355   Anisotropy =     6.4671

      9  H    Isotropic =    29.1515   Anisotropy =     5.4087

     10  H    Isotropic =    28.5096   Anisotropy =     4.0571

     11  H    Isotropic =    28.8352   Anisotropy =     4.3833

     12  H    Isotropic =    28.7686   Anisotropy =     8.2389

     13  H    Isotropic =    28.7167   Anisotropy =     8.2289

     14  H    Isotropic =    28.3214   Anisotropy =     9.0972

 The electronic state is 1-A.
 Alpha  occ. eigenvalues --  -19.62600 -14.72945 -10.57736 -10.57617 -10.55649
 Alpha  occ. eigenvalues --   -1.15656  -0.98904  -0.83571  -0.74999  -0.68606
 Alpha  occ. eigenvalues --   -0.57640  -0.56478  -0.54505  -0.51827  -0.49759
 Alpha  occ. eigenvalues --   -0.47203  -0.42716  -0.41194  -0.38943  -0.33128
 Alpha  occ. eigenvalues --   -0.31327
 Alpha virt. eigenvalues --    0.06130   0.07922   0.10973   0.11139   0.13240
 Alpha virt. eigenvalues --    0.14272   0.15052   0.16274   0.17622   0.19000
 Alpha virt. eigenvalues --    0.20663   0.21338   0.25133   0.25351   0.26708

 Mulliken charges:
               1
     1  N   -0.562816
     2  C   -0.157904
     3  C   -0.064235
     4  O   -0.311971
     5  C   -0.249200
     6  H    0.233714
     7  H    0.229441
     8  H    0.126359
     9  H    0.133315
    10  H    0.127067
    11  H    0.103136
    12  H    0.125793
    13  H    0.127928
    14  H    0.139373
 Sum of Mulliken charges =   0.00000

 Dipole moment (field-independent basis, Debye):
    X=             -0.2342    Y=             -0.3554    Z=             -0.8824  Tot=              0.9797
 Quadrupole moment (field-independent basis, Debye-Ang):
   XX=            -27.2533   YY=            -34.0707   ZZ=            -32.6601
   XY=             -3.6099   XZ=              2.8701   YZ=              1.8986

 1\1\GINC-NOTCH218\SP\RM062X\def2TZVP\C3H9N1O1\U6032257\21-Feb-2022\0\\
 # M062X/def2tzvp int=(grid=ultrafine) nmr=giao guess=read geom=check\\
 N1.xyz\\0,1\N,0,0.3283080172,-1.4286801931,-2.4489774266\C,0,0.2659570
 557,-0.213270532,-1.632794501\C,0,0.0786768314,-0.5913848694,-0.170315
 3816\O,0,0.0461953931,0.5974819843,0.5942427643\C,0,-0.1423887396,0.35
 17677003,1.9693606609\H,0,0.3002673446,-1.183556702,-3.4347081363\H,0,
 1.2200883973,-1.8962934107,-2.3010134322\H,0,1.1467660759,0.4452977009
 ,-1.711247404\H,0,-0.6004581268,0.3759690425,-1.9508267474\H,0,-0.8520

 Normal termination of Gaussian 16 at Mon Feb 21 19:00:19 2022.
