 Gaussian 16, Revision C.01,

 ----------------------------------------------------------------------
 # B3LYP/6-31G(d,p) empiricaldispersion=GD3BJ int=(grid=ultrafine) opt
 freq=noraman
 ----------------------------------------------------------------------

 ------
 N2.xyz
 ------
 Symbolic Z-matrix:
 Charge =  0 Multiplicity = 1

 SCF Done:  E(RB3LYP) =  -330.592180298     A.U. after   12 cycles
 SCF Done:  E(RB3LYP) =  -330.595549579     A.U. after   11 cycles
 SCF Done:  E(RB3LYP) =  -330.595924591     A.U. after   10 cycles
 SCF Done:  E(RB3LYP) =  -330.595949656     A.U. after    9 cycles
 SCF Done:  E(RB3LYP) =  -330.595955294     A.U. after    8 cycles
 SCF Done:  E(RB3LYP) =  -330.595957314     A.U. after    7 cycles
 SCF Done:  E(RB3LYP) =  -330.595957678     A.U. after    7 cycles
 Optimization completed.
    -- Stationary point found.
 Normal termination of Gaussian 16 at Mon Feb 21 19:06:06 2022.

 ----------------------------------------------------------------------
 #N Geom=AllCheck Guess=TCheck SCRF=Check GenChk RB3LYP/6-31G(d,p) Freq
 ----------------------------------------------------------------------

 Structure from the checkpoint file:  "N2_conf-1.chk"
 ------
 N2.xyz
 ------
 Charge =  0 Multiplicity = 1

 SCF Done:  E(RB3LYP) =  -330.595957678     A.U. after    1 cycles

                      1                      2                      3
                      A                      A                      A
 Frequencies --     97.5067               140.7777               218.3125
 Red. masses --      2.5353                 2.0433                 2.8290
 Frc consts  --      0.0142                 0.0239                 0.0794
 IR Inten    --      0.2036                 3.3404                 2.1792

                      4                      5                      6
                      A                      A                      A
 Frequencies --    234.1308               289.7449               341.3315
 Red. masses --      1.7705                 1.3513                 1.4669
 Frc consts  --      0.0572                 0.0668                 0.1007
 IR Inten    --      0.1480                30.7804                13.9161

                      7                      8                      9
                      A                      A                      A
 Frequencies --    365.0713               435.3093               446.8024
 Red. masses --      3.5488                 1.9032                 2.4993
 Frc consts  --      0.2787                 0.2125                 0.2940
 IR Inten    --      0.7805                 2.0144                 0.5308

                     10                     11                     12
                      A                      A                      A
 Frequencies --    477.3869               548.1891               779.9742
 Red. masses --      2.7567                 1.6219                 2.1566
 Frc consts  --      0.3701                 0.2872                 0.7730
 IR Inten    --      3.5162                 4.3968                14.6377

                     13                     14                     15
                      A                      A                      A
 Frequencies --    801.8593               839.5302               850.0441
 Red. masses --      1.4806                 1.6493                 1.9107
 Frc consts  --      0.5609                 0.6849                 0.8135
 IR Inten    --      2.4290                14.4075                25.7739

                     16                     17                     18
                      A                      A                      A
 Frequencies --    881.8938               909.1062               924.8190
 Red. masses --      1.5682                 1.8800                 1.4866
 Frc consts  --      0.7186                 0.9155                 0.7491
 IR Inten    --    152.3417                18.9238                 3.1684

                     19                     20                     21
                      A                      A                      A
 Frequencies --    936.4883               978.0505              1045.9292
 Red. masses --      1.5638                 2.2200                 1.7874
 Frc consts  --      0.8080                 1.2512                 1.1521
 IR Inten    --      0.9269                40.9701                 0.8411

                     22                     23                     24
                      A                      A                      A
 Frequencies --   1053.8508              1078.3441              1091.7370
 Red. masses --      1.6396                 1.2762                 1.6078
 Frc consts  --      1.0729                 0.8744                 1.1291
 IR Inten    --      2.4702                 3.9128                 4.3721

                     25                     26                     27
                      A                      A                      A
 Frequencies --   1105.5594              1117.4987              1137.3425
 Red. masses --      2.0047                 2.4786                 1.7673
 Frc consts  --      1.4437                 1.8237                 1.3469
 IR Inten    --      0.9892                 5.5905                 0.3443

                     28                     29                     30
                      A                      A                      A
 Frequencies --   1201.2907              1219.8431              1285.5251
 Red. masses --      1.7487                 1.5861                 1.2643
 Frc consts  --      1.4868                 1.3905                 1.2310
 IR Inten    --      1.4435                 2.5511                 1.8061

                     31                     32                     33
                      A                      A                      A
 Frequencies --   1296.9272              1300.3738              1325.5251
 Red. masses --      1.2689                 1.2938                 1.1931
 Frc consts  --      1.2575                 1.2890                 1.2351
 IR Inten    --      3.0048                 2.4561                 3.2948

                     34                     35                     36
                      A                      A                      A
 Frequencies --   1344.5932              1372.9190              1382.1261
 Red. masses --      1.2987                 1.3687                 1.3490
 Frc consts  --      1.3834                 1.5200                 1.5184
 IR Inten    --      0.2949                 2.8377                 1.2424

                     37                     38                     39
                      A                      A                      A
 Frequencies --   1391.4810              1392.6911              1400.0605
 Red. masses --      1.4822                 1.4884                 1.2910
 Frc consts  --      1.6909                 1.7009                 1.4910
 IR Inten    --      0.3418                 0.8912                 9.3711

                     40                     41                     42
                      A                      A                      A
 Frequencies --   1405.9800              1411.5184              1493.7864
 Red. masses --      1.4855                 1.3668                 1.0870
 Frc consts  --      1.7301                 1.6044                 1.4291
 IR Inten    --      2.9660                 0.3851                 0.0324

                     43                     44                     45
                      A                      A                      A
 Frequencies --   1497.6357              1501.6220              1502.6653
 Red. masses --      1.0907                 1.0928                 1.0966
 Frc consts  --      1.4414                 1.4519                 1.4589
 IR Inten    --      0.8660                 1.4897                 1.6275

                     46                     47                     48
                      A                      A                      A
 Frequencies --   1506.7529              1521.2099              1672.3213
 Red. masses --      1.0849                 1.1005                 1.0892
 Frc consts  --      1.4512                 1.5004                 1.7948
 IR Inten    --      8.3203                 0.4508                16.6331

                     49                     50                     51
                      A                      A                      A
 Frequencies --   2977.5849              3007.4615              3013.3224
 Red. masses --      1.0815                 1.0656                 1.0639
 Frc consts  --      5.6497                 5.6789                 5.6919
 IR Inten    --     14.7822                21.6607                15.0663

                     52                     53                     54
                      A                      A                      A
 Frequencies --   3019.7625              3021.3684              3025.0632
 Red. masses --      1.0699                 1.0637                 1.0609
 Frc consts  --      5.7482                 5.7209                 5.7199
 IR Inten    --     19.1015                14.1784                22.2836

                     55                     56                     57
                      A                      A                      A
 Frequencies --   3026.9009              3060.2004              3063.6368
 Red. masses --      1.0602                 1.0999                 1.0967
 Frc consts  --      5.7232                 6.0688                 6.0645
 IR Inten    --     76.8859                12.3681                70.6830

                     58                     59                     60
                      A                      A                      A
 Frequencies --   3069.1910              3071.1575              3071.7412
 Red. masses --      1.1027                 1.1007                 1.0932
 Frc consts  --      6.1203                 6.1165                 6.0775
 IR Inten    --     62.8330                29.4092                55.2066

                     61                     62                     63
                      A                      A                      A
 Frequencies --   3078.4646              3485.4829              3573.0957
 Red. masses --      1.1050                 1.0493                 1.0919
 Frc consts  --      6.1699                 7.5109                 8.2130
 IR Inten    --    108.2148                 1.4703                 0.4016

 - Thermochemistry -
 -------------------
 Temperature   298.150 Kelvin.  Pressure   1.00000 Atm.
 Atom     1 has atomic number  7 and mass  14.00307

 Molecular mass:   113.12045 amu.
 Principal axes and moments of inertia in atomic units:
                           1         2         3
     Eigenvalues --   469.422111399.125691732.40981
           X            1.00000  -0.00227   0.00106
           Y            0.00227   0.99999  -0.00281
           Z           -0.00105   0.00281   1.00000
 This molecule is an asymmetric top.
 Rotational symmetry number  1.
 Warning -- assumption of classical behavior for rotation
           may cause significant error
 Rotational temperatures (Kelvin)      0.18451     0.06191     0.05000
 Rotational constants (GHZ):           3.84460     1.28991     1.04175
 Zero-point vibrational energy     568931.2 (Joules/Mol)
                                  135.97782 (Kcal/Mol)
 Warning -- explicit consideration of  11 degrees of freedom as
           vibrations may cause significant error
 Vibrational temperatures:    140.29   202.55   314.10   336.86   416.88
          (Kelvin)            491.10   525.26   626.31   642.85   686.85
                              788.72  1122.21  1153.70  1207.90  1223.02
                             1268.85  1308.00  1330.61  1347.40  1407.20
                             1504.86  1516.26  1551.50  1570.77  1590.65
                             1607.83  1636.38  1728.39  1755.08  1849.58
                             1865.99  1870.95  1907.13  1934.57  1975.32
                             1988.57  2002.03  2003.77  2014.37  2022.89
                             2030.86  2149.23  2154.76  2160.50  2162.00
                             2167.88  2188.68  2406.10  4284.08  4327.07
                             4335.50  4344.76  4347.08  4352.39  4355.04
                             4402.95  4407.89  4415.88  4418.71  4419.55
                             4429.22  5014.83  5140.89

 Zero-point correction=                           0.216694 (Hartree/Particle)
 Thermal correction to Energy=                    0.224987
 Thermal correction to Enthalpy=                  0.225931
 Thermal correction to Gibbs Free Energy=         0.184261
 Sum of electronic and zero-point Energies=           -330.379263
 Sum of electronic and thermal Energies=              -330.370971
 Sum of electronic and thermal Enthalpies=            -330.370026
 Sum of electronic and thermal Free Energies=         -330.411697

                     E (Thermal)             CV                S
                      KCal/Mol        Cal/Mol-Kelvin    Cal/Mol-Kelvin
 Total                  141.181             32.671             87.703
 Electronic               0.000              0.000              0.000
 Translational            0.889              2.981             40.085
 Rotational               0.889              2.981             28.522
 Vibrational            139.404             26.709             19.095
 Vibration     1          0.603              1.951              3.504
 Vibration     2          0.615              1.913              2.793
 Vibration     3          0.646              1.813              1.973
 Vibration     4          0.654              1.789              1.847
 Vibration     5          0.686              1.693              1.475
 Vibration     6          0.721              1.593              1.206
 Vibration     7          0.738              1.544              1.100
 Vibration     8          0.796              1.393              0.841
 Vibration     9          0.806              1.368              0.806
 Vibration    10          0.834              1.300              0.717
 Vibration    11          0.903              1.144              0.548

 Optimization completed.
    -- Stationary point found.
 Normal termination of Gaussian 16 at Mon Feb 21 19:06:29 2022.

 ----------------------------------------------------------------------
 # M062X/def2tzvp int=(grid=ultrafine) pop=nbo7 polar prop=efg volume g
 uess=read geom=check
 ----------------------------------------------------------------------

 ------
 N2.xyz
 ------
 Structure from the checkpoint file:  "N2_conf-1.chk"
 Charge =  0 Multiplicity = 1

 SCF Done:  E(RM062X) =  -330.496044709     A.U. after   11 cycles

  Exact polarizability:      99.978      -0.508      88.337       0.155      -0.294      77.684
 Approx polarizability:     103.875      -0.758     104.323       0.698      -0.093     105.227

 Summary of Natural Population Analysis:

                                     Natural Population
             Natural    ---------------------------------------------
  Atom No    Charge        Core      Valence    Rydberg      Total
 --------------------------------------------------------------------
    N  1   -0.82312      1.99999     5.79794    0.02519     7.82312
    C  2   -0.20528      1.99999     4.19048    0.01480     6.20528
    C  3   -0.22906      1.99999     4.21503    0.01403     6.22906
    C  4   -0.40232      1.99999     4.39035    0.01198     6.40232
    C  5   -0.39329      1.99999     4.38265    0.01064     6.39329
    C  6   -0.39603      1.99999     4.38546    0.01057     6.39603
    C  7   -0.39354      1.99999     4.38302    0.01052     6.39354
    C  8   -0.39612      1.99999     4.38449    0.01164     6.39612
    H  9    0.34592      0.00000     0.65205    0.00203     0.65408
    H 10    0.34790      0.00000     0.65034    0.00176     0.65210
    H 11    0.18733      0.00000     0.81082    0.00186     0.81267
    H 12    0.18269      0.00000     0.81530    0.00201     0.81731
    H 13    0.18456      0.00000     0.81271    0.00273     0.81544
    H 14    0.20149      0.00000     0.79614    0.00237     0.79851
    H 15    0.19256      0.00000     0.80528    0.00215     0.80744
    H 16    0.20680      0.00000     0.79174    0.00146     0.79320
    H 17    0.19210      0.00000     0.80597    0.00193     0.80790
    H 18    0.19176      0.00000     0.80632    0.00192     0.80824
    H 19    0.20710      0.00000     0.79154    0.00136     0.79290
    H 20    0.20711      0.00000     0.79144    0.00146     0.79289
    H 21    0.19184      0.00000     0.80624    0.00192     0.80816
    H 22    0.19282      0.00000     0.80501    0.00217     0.80718
    H 23    0.20676      0.00000     0.79162    0.00162     0.79324
 ====================================================================
 * Total *  0.00000     15.99994    47.86195    0.13811    64.00000

 Normal termination of Gaussian 16 at Mon Feb 21 19:07:29 2022.
 Gaussian 16:  ES64L-G16RevC.01  3-Jul-2019

 --------------------------------------------------------------------
 # M062X/def2tzvp int=(grid=ultrafine) nmr=giao guess=read geom=check
 --------------------------------------------------------------------

 ------
 N2.xyz
 ------
 Structure from the checkpoint file:  "N2_conf-1.chk"
 Charge =  0 Multiplicity = 1

                         Standard orientation:
 ---------------------------------------------------------------------
 Center     Atomic      Atomic             Coordinates (Angstroms)
 Number     Number       Type             X           Y           Z
 ---------------------------------------------------------------------
      1          7           0       -3.068467    0.337289   -0.152937
      2          6           0       -1.999985   -0.581014    0.245190
      3          6           0       -0.575327   -0.253931   -0.238135
      4          6           0       -0.081598    1.107981    0.273061
      5          6           0        1.347866    1.415762   -0.190896
      6          6           0        2.319564    0.300821    0.215767
      7          6           0        1.841137   -1.063533   -0.296455
      8          6           0        0.409350   -1.362368    0.166172
      9          1           0       -3.068896    0.443491   -1.165659
     10          1           0       -2.891144    1.263680    0.227096
     11          1           0       -2.271096   -1.583328   -0.110188
     12          1           0       -1.999421   -0.635925    1.342127
     13          1           0       -0.598801   -0.210415   -1.340008
     14          1           0       -0.760634    1.903448   -0.056396
     15          1           0       -0.112984    1.103350    1.373079
     16          1           0        1.678962    2.378354    0.215768
     17          1           0        1.356046    1.518801   -1.285043
     18          1           0        2.391335    0.268665    1.312034
     19          1           0        3.326954    0.517389   -0.158025
     20          1           0        2.520454   -1.856366    0.037496
     21          1           0        1.872376   -1.066665   -1.394963
     22          1           0        0.397869   -1.462278    1.261584
     23          1           0        0.072211   -2.325530   -0.236562
 ---------------------------------------------------------------------

 SCF Done:  E(RM062X) =  -330.496044709     A.U. after    1 cycles

      1  N    Isotropic =   232.0714   Anisotropy =    48.2195

      2  C    Isotropic =   130.9931   Anisotropy =    40.2298

      3  C    Isotropic =   137.3631   Anisotropy =    23.5637

      4  C    Isotropic =   153.3869   Anisotropy =    17.0417

      5  C    Isotropic =   157.1219   Anisotropy =     3.7698

      6  C    Isotropic =   156.5063   Anisotropy =     3.9123

      7  C    Isotropic =   156.9540   Anisotropy =     3.9015

      8  C    Isotropic =   151.4714   Anisotropy =    14.7485

      9  H    Isotropic =    32.2929   Anisotropy =    13.4403

     10  H    Isotropic =    31.1330   Anisotropy =    11.4951

     11  H    Isotropic =    29.2548   Anisotropy =     6.5339

     12  H    Isotropic =    29.8825   Anisotropy =     5.6288

     13  H    Isotropic =    31.0536   Anisotropy =     5.4219

     14  H    Isotropic =    29.9348   Anisotropy =     7.2434

     15  H    Isotropic =    31.3883   Anisotropy =     7.1639

     16  H    Isotropic =    30.1556   Anisotropy =    10.1390

     17  H    Isotropic =    30.7781   Anisotropy =     8.6015

     18  H    Isotropic =    30.8060   Anisotropy =     8.6526

     19  H    Isotropic =    30.2424   Anisotropy =    10.2573

     20  H    Isotropic =    30.2305   Anisotropy =    10.3032

     21  H    Isotropic =    30.7295   Anisotropy =     8.5747

     22  H    Isotropic =    31.1996   Anisotropy =     6.8181

     23  H    Isotropic =    30.4107   Anisotropy =     8.2041

 The electronic state is 1-A.
 Alpha  occ. eigenvalues --  -14.72244 -10.55207 -10.53233 -10.52911 -10.52863
 Alpha  occ. eigenvalues --  -10.52840 -10.52787 -10.52765  -0.98575  -0.92905
 Alpha  occ. eigenvalues --   -0.84487  -0.83455  -0.74246  -0.69247  -0.66521
 Alpha  occ. eigenvalues --   -0.63260  -0.56301  -0.54775  -0.51121  -0.50863
 Alpha  occ. eigenvalues --   -0.50449  -0.47847  -0.45068  -0.43964  -0.43496
 Alpha  occ. eigenvalues --   -0.41256  -0.40119  -0.38910  -0.37488  -0.36601
 Alpha  occ. eigenvalues --   -0.35101  -0.30086
 Alpha virt. eigenvalues --    0.06002   0.07432   0.07851   0.08851   0.10966
 Alpha virt. eigenvalues --    0.11628   0.12577   0.13184   0.14075   0.15168
 Alpha virt. eigenvalues --    0.15420   0.15755   0.16166   0.17797   0.18630

 Mulliken charges:
               1
     1  N   -0.527860
     2  C   -0.157520
     3  C   -0.143879
     4  C   -0.306808
     5  C   -0.283482
     6  C   -0.277388
     7  C   -0.272803
     8  C   -0.317005
     9  H    0.220419
    10  H    0.227435
    11  H    0.139987
    12  H    0.146382
    13  H    0.131823
    14  H    0.121701
    15  H    0.152032
    16  H    0.141767
    17  H    0.143955
    18  H    0.141435
    19  H    0.142325
    20  H    0.141263
    21  H    0.143951
    22  H    0.148787
    23  H    0.143483
 Sum of Mulliken charges =  -0.00000

 Dipole moment (field-independent basis, Debye):
    X=              1.3880    Y=              0.4906    Z=             -0.5087  Tot=              1.5575
 Quadrupole moment (field-independent basis, Debye-Ang):
   XX=            -61.6535   YY=            -51.5754   ZZ=            -51.1726
   XY=             -1.7184   XZ=              2.0652   YZ=              0.1259

 Normal termination of Gaussian 16 at Mon Feb 21 19:07:55 2022.
