 Gaussian 16, Revision C.01,

 ----------------------------------------------------------------------
 # B3LYP/6-31G(d,p) empiricaldispersion=GD3BJ int=(grid=ultrafine) opt
 freq=noraman
 ----------------------------------------------------------------------

 ------
 N2.xyz
 ------
 Symbolic Z-matrix:
 Charge =  0 Multiplicity = 1

 SCF Done:  E(RB3LYP) =  -330.590294650     A.U. after   12 cycles
 SCF Done:  E(RB3LYP) =  -330.593262097     A.U. after   10 cycles
 SCF Done:  E(RB3LYP) =  -330.593569380     A.U. after    9 cycles
 SCF Done:  E(RB3LYP) =  -330.593601505     A.U. after    9 cycles
 SCF Done:  E(RB3LYP) =  -330.593610285     A.U. after    8 cycles
 SCF Done:  E(RB3LYP) =  -330.593614297     A.U. after    8 cycles
 SCF Done:  E(RB3LYP) =  -330.593614807     A.U. after    7 cycles
 Optimization completed.
    -- Stationary point found.
 Normal termination of Gaussian 16 at Mon Feb 21 19:06:12 2022.

 ----------------------------------------------------------------------
 #N Geom=AllCheck Guess=TCheck SCRF=Check GenChk RB3LYP/6-31G(d,p) Freq
 ----------------------------------------------------------------------

 Structure from the checkpoint file:  "N2_conf-3.chk"
 ------
 N2.xyz
 ------
 Charge =  0 Multiplicity = 1

 SCF Done:  E(RB3LYP) =  -330.593614807     A.U. after    1 cycles

                      1                      2                      3
                      A                      A                      A
 Frequencies --     84.0033               151.8684               195.9016
 Red. masses --      2.5114                 2.2118                 2.2323
 Frc consts  --      0.0104                 0.0301                 0.0505
 IR Inten    --      0.3102                 1.8981                 1.8617

                      4                      5                      6
                      A                      A                      A
 Frequencies --    289.1745               300.8593               321.4397
 Red. masses --      1.4625                 2.2487                 1.5687
 Frc consts  --      0.0721                 0.1199                 0.0955
 IR Inten    --     24.0352                 0.2809                20.2459

                      7                      8                      9
                      A                      A                      A
 Frequencies --    387.1147               413.6634               476.1842
 Red. masses --      1.9079                 2.3023                 1.9965
 Frc consts  --      0.1685                 0.2321                 0.2667
 IR Inten    --      1.2403                 1.8709                 1.5657

                     10                     11                     12
                      A                      A                      A
 Frequencies --    501.0681               608.5704               765.4082
 Red. masses --      2.5760                 1.8978                 2.5085
 Frc consts  --      0.3811                 0.4141                 0.8659
 IR Inten    --      2.3891                 2.5599                26.1974

                     13                     14                     15
                      A                      A                      A
 Frequencies --    796.5831               830.6067               843.3276
 Red. masses --      1.4677                 2.0255                 1.7432
 Frc consts  --      0.5487                 0.8233                 0.7305
 IR Inten    --      1.5500                11.8574                 4.1197

                     16                     17                     18
                      A                      A                      A
 Frequencies --    871.3716               894.1168               913.4875
 Red. masses --      2.0257                 1.8650                 1.4938
 Frc consts  --      0.9062                 0.8785                 0.7344
 IR Inten    --     47.6576               131.6235                 1.3118

                     19                     20                     21
                      A                      A                      A
 Frequencies --    949.3782               976.5469              1033.6030
 Red. masses --      1.3559                 1.9575                 2.1052
 Frc consts  --      0.7200                 1.0999                 1.3251
 IR Inten    --      1.7215                40.9978                 4.4266

                     22                     23                     24
                      A                      A                      A
 Frequencies --   1044.6545              1053.3862              1100.3518
 Red. masses --      1.8223                 1.6238                 2.3148
 Frc consts  --      1.1717                 1.0616                 1.6513
 IR Inten    --      0.3417                 1.1859                 0.7080

                     25                     26                     27
                      A                      A                      A
 Frequencies --   1103.7837              1116.5515              1139.3684
 Red. masses --      1.7596                 1.3814                 1.0349
 Frc consts  --      1.2631                 1.0147                 0.7916
 IR Inten    --      3.2962                 1.2128                 0.1306

                     28                     29                     30
                      A                      A                      A
 Frequencies --   1174.5969              1207.9844              1284.8808
 Red. masses --      1.8423                 1.8093                 1.2962
 Frc consts  --      1.4975                 1.5555                 1.2608
 IR Inten    --      2.7638                 0.4380                 0.1738

                     31                     32                     33
                      A                      A                      A
 Frequencies --   1298.9277              1303.9677              1326.6418
 Red. masses --      1.2492                 1.2209                 1.3692
 Frc consts  --      1.2418                 1.2231                 1.4198
 IR Inten    --      1.5407                 0.5585                 5.6180

                     34                     35                     36
                      A                      A                      A
 Frequencies --   1358.0524              1366.5157              1384.4944
 Red. masses --      1.3128                 1.5569                 1.3904
 Frc consts  --      1.4265                 1.7129                 1.5703
 IR Inten    --      0.4995                 3.7065                 5.5754

                     37                     38                     39
                      A                      A                      A
 Frequencies --   1389.9735              1394.4205              1400.3368
 Red. masses --      1.4411                 1.4355                 1.3674
 Frc consts  --      1.6404                 1.6445                 1.5798
 IR Inten    --      0.2540                 1.4824                 0.4511

                     40                     41                     42
                      A                      A                      A
 Frequencies --   1408.7304              1413.9153              1494.2056
 Red. masses --      1.2907                 1.3911                 1.0847
 Frc consts  --      1.5092                 1.6385                 1.4268
 IR Inten    --      0.4766                 1.4098                 0.2775

                     43                     44                     45
                      A                      A                      A
 Frequencies --   1499.5817              1501.4018              1508.8341
 Red. masses --      1.0926                 1.0923                 1.0905
 Frc consts  --      1.4476                 1.4507                 1.4627
 IR Inten    --      0.4350                 4.6043                 6.3928

                     46                     47                     48
                      A                      A                      A
 Frequencies --   1512.0901              1524.2083              1672.3350
 Red. masses --      1.0838                 1.0992                 1.0885
 Frc consts  --      1.4601                 1.5046                 1.7936
 IR Inten    --      6.5657                 2.3219                17.3216

                     49                     50                     51
                      A                      A                      A
 Frequencies --   2996.9528              3018.5027              3022.9320
 Red. masses --      1.0817                 1.0670                 1.0630
 Frc consts  --      5.7243                 5.7281                 5.7231
 IR Inten    --     26.7718                21.8165                28.3494

                     52                     53                     54
                      A                      A                      A
 Frequencies --   3028.7573              3030.7417              3033.1273
 Red. masses --      1.0646                 1.0633                 1.0629
 Frc consts  --      5.7540                 5.7543                 5.7614
 IR Inten    --     19.1273                70.2692                 3.5018

                     55                     56                     57
                      A                      A                      A
 Frequencies --   3038.8455              3063.3916              3064.5204
 Red. masses --      1.0676                 1.0979                 1.0994
 Frc consts  --      5.8084                 6.0704                 6.0833
 IR Inten    --     26.0335                76.1381                32.3111

                     58                     59                     60
                      A                      A                      A
 Frequencies --   3071.1146              3073.9890              3078.8698
 Red. masses --      1.0929                 1.1033                 1.1044
 Frc consts  --      6.0732                 6.1424                 6.1684
 IR Inten    --     60.3429                21.6407                81.6304

                     61                     62                     63
                      A                      A                      A
 Frequencies --   3090.6552              3483.6211              3571.5049
 Red. masses --      1.0995                 1.0494                 1.0918
 Frc consts  --      6.1877                 7.5032                 8.2050
 IR Inten    --     65.2250                 1.4512                 0.5444

 - Thermochemistry -
 -------------------
 Temperature   298.150 Kelvin.  Pressure   1.00000 Atm.
 Atom     1 has atomic number  7 and mass  14.00307

 Molecular mass:   113.12045 amu.
 Principal axes and moments of inertia in atomic units:
                           1         2         3
     Eigenvalues --   566.443261205.342751434.21446
           X            0.99993   0.00404   0.01073
           Y           -0.00408   0.99999   0.00362
           Z           -0.01072  -0.00366   0.99994
 This molecule is an asymmetric top.
 Rotational symmetry number  1.
 Warning -- assumption of classical behavior for rotation
           may cause significant error
 Rotational temperatures (Kelvin)      0.15291     0.07186     0.06039
 Rotational constants (GHZ):           3.18609     1.49728     1.25835
 Zero-point vibrational energy     569757.4 (Joules/Mol)
                                  136.17528 (Kcal/Mol)
 Warning -- explicit consideration of  11 degrees of freedom as
           vibrations may cause significant error
 Vibrational temperatures:    120.86   218.50   281.86   416.06   432.87
          (Kelvin)            462.48   556.97   595.17   685.12   720.93
                              875.60  1101.25  1146.11  1195.06  1213.36
                             1253.71  1286.43  1314.30  1365.94  1405.03
                             1487.12  1503.02  1515.59  1583.16  1588.10
                             1606.47  1639.30  1689.98  1738.02  1848.66
                             1868.87  1876.12  1908.74  1953.93  1966.11
                             1991.98  1999.86  2006.26  2014.77  2026.85
                             2034.31  2149.83  2157.56  2160.18  2170.88
                             2175.56  2193.00  2406.12  4311.95  4342.95
                             4349.32  4357.71  4360.56  4363.99  4372.22
                             4407.54  4409.16  4418.65  4422.78  4429.81
                             4446.76  5012.15  5138.60

 Zero-point correction=                           0.217009 (Hartree/Particle)
 Thermal correction to Energy=                    0.225218
 Thermal correction to Enthalpy=                  0.226162
 Thermal correction to Gibbs Free Energy=         0.184660
 Sum of electronic and zero-point Energies=           -330.376606
 Sum of electronic and thermal Energies=              -330.368397
 Sum of electronic and thermal Enthalpies=            -330.367453
 Sum of electronic and thermal Free Energies=         -330.408954

                     E (Thermal)             CV                S
                      KCal/Mol        Cal/Mol-Kelvin    Cal/Mol-Kelvin
 Total                  141.326             32.522             87.347
 Electronic               0.000              0.000              0.000
 Translational            0.889              2.981             40.085
 Rotational               0.889              2.981             28.373
 Vibrational            139.549             26.560             18.889
 Vibration     1          0.601              1.960              3.795
 Vibration     2          0.619              1.901              2.649
 Vibration     3          0.636              1.846              2.171
 Vibration     4          0.686              1.694              1.479
 Vibration     5          0.693              1.672              1.412
 Vibration     6          0.707              1.632              1.303
 Vibration     7          0.756              1.498              1.011
 Vibration     8          0.777              1.441              0.914
 Vibration     9          0.833              1.303              0.720
 Vibration    10          0.856              1.248              0.655
 Vibration    11          0.967              1.014              0.435

 Optimization completed.
    -- Stationary point found.
 Normal termination of Gaussian 16 at Mon Feb 21 19:06:35 2022.

 ----------------------------------------------------------------------
 # M062X/def2tzvp int=(grid=ultrafine) pop=nbo7 polar prop=efg volume g
 uess=read geom=check
 ----------------------------------------------------------------------

 ------
 N2.xyz
 ------
 Structure from the checkpoint file:  "N2_conf-3.chk"
 Charge =  0 Multiplicity = 1

 SCF Done:  E(RM062X) =  -330.493467727     A.U. after   11 cycles

  Exact polarizability:      95.954       0.722      87.536       1.342       0.180      79.301
 Approx polarizability:     104.952       0.532     104.175       0.471      -0.080     102.994

 Summary of Natural Population Analysis:

                                     Natural Population
             Natural    ---------------------------------------------
  Atom No    Charge        Core      Valence    Rydberg      Total
 --------------------------------------------------------------------
    N  1   -0.82334      1.99999     5.79800    0.02534     7.82334
    C  2   -0.21829      1.99999     4.20287    0.01543     6.21829
    C  3   -0.22760      1.99999     4.21353    0.01408     6.22760
    C  4   -0.40211      1.99999     4.39018    0.01194     6.40211
    C  5   -0.40209      1.99999     4.39121    0.01090     6.40209
    C  6   -0.39657      1.99999     4.38575    0.01083     6.39657
    C  7   -0.40014      1.99999     4.38943    0.01072     6.40014
    C  8   -0.39661      1.99999     4.38507    0.01155     6.39661
    H  9    0.34572      0.00000     0.65217    0.00211     0.65428
    H 10    0.34723      0.00000     0.65096    0.00180     0.65277
    H 11    0.18830      0.00000     0.80984    0.00185     0.81170
    H 12    0.18478      0.00000     0.81315    0.00207     0.81522
    H 13    0.19631      0.00000     0.80159    0.00210     0.80369
    H 14    0.20091      0.00000     0.79730    0.00178     0.79909
    H 15    0.19989      0.00000     0.79776    0.00235     0.80011
    H 16    0.19128      0.00000     0.80691    0.00181     0.80872
    H 17    0.20850      0.00000     0.79007    0.00143     0.79150
    H 18    0.20674      0.00000     0.79187    0.00139     0.79326
    H 19    0.19094      0.00000     0.80704    0.00202     0.80906
    H 20    0.19303      0.00000     0.80523    0.00174     0.80697
    H 21    0.20822      0.00000     0.79036    0.00143     0.79178
    H 22    0.20576      0.00000     0.79259    0.00164     0.79424
    H 23    0.19913      0.00000     0.79908    0.00179     0.80087
 ====================================================================
 * Total *  0.00000     15.99994    47.86198    0.13808    64.00000

 Normal termination of Gaussian 16 at Mon Feb 21 19:07:36 2022.
 Gaussian 16:  ES64L-G16RevC.01  3-Jul-2019

 --------------------------------------------------------------------
 # M062X/def2tzvp int=(grid=ultrafine) nmr=giao guess=read geom=check
 --------------------------------------------------------------------

 ------
 N2.xyz
 ------
 Structure from the checkpoint file:  "N2_conf-3.chk"
 Charge =  0 Multiplicity = 1

                         Standard orientation:
 ---------------------------------------------------------------------
 Center     Atomic      Atomic             Coordinates (Angstroms)
 Number     Number       Type             X           Y           Z
 ---------------------------------------------------------------------
      1          7           0        2.790437    0.251229   -0.463942
      2          6           0        1.567617   -0.552616   -0.506853
      3          6           0        0.591872   -0.394279    0.680303
      4          6           0        0.072453    1.046698    0.845413
      5          6           0       -0.922038    1.447947   -0.253185
      6          6           0       -2.094070    0.460206   -0.325693
      7          6           0       -1.598364   -0.978961   -0.518596
      8          6           0       -0.593573   -1.374300    0.574410
      9          1           0        3.257891    0.117143    0.430898
     10          1           0        2.559558    1.240307   -0.514610
     11          1           0        1.861846   -1.608089   -0.569031
     12          1           0        1.061872   -0.326029   -1.451453
     13          1           0        1.162528   -0.651492    1.585389
     14          1           0       -0.426506    1.130197    1.820023
     15          1           0        0.914776    1.748442    0.875020
     16          1           0       -0.413464    1.477251   -1.226049
     17          1           0       -1.290725    2.463631   -0.069163
     18          1           0       -2.780707    0.739290   -1.133227
     19          1           0       -2.668646    0.519180    0.609659
     20          1           0       -1.130894   -1.071045   -1.507356
     21          1           0       -2.444466   -1.675789   -0.513747
     22          1           0       -0.221811   -2.391239    0.397164
     23          1           0       -1.117682   -1.398525    1.539284
 ---------------------------------------------------------------------

 SCF Done:  E(RM062X) =  -330.493467727     A.U. after    1 cycles

      1  N    Isotropic =   230.8469   Anisotropy =    43.7737

      2  C    Isotropic =   138.8320   Anisotropy =    41.7804

      3  C    Isotropic =   142.8479   Anisotropy =    22.2124

      4  C    Isotropic =   158.8773   Anisotropy =    13.5750

      5  C    Isotropic =   164.1052   Anisotropy =    14.5655

      6  C    Isotropic =   156.6518   Anisotropy =     4.5326

      7  C    Isotropic =   162.3141   Anisotropy =    10.5148

      8  C    Isotropic =   153.1530   Anisotropy =    12.1585

      9  H    Isotropic =    32.3022   Anisotropy =    13.8740

     10  H    Isotropic =    31.2639   Anisotropy =    11.6197

     11  H    Isotropic =    29.4870   Anisotropy =     7.0883

     12  H    Isotropic =    29.0703   Anisotropy =     4.8733

     13  H    Isotropic =    30.5940   Anisotropy =     7.9648

     14  H    Isotropic =    30.6453   Anisotropy =     9.1808

     15  H    Isotropic =    30.0771   Anisotropy =     7.5286

     16  H    Isotropic =    30.5969   Anisotropy =     7.0370

     17  H    Isotropic =    30.5714   Anisotropy =    10.6439

     18  H    Isotropic =    30.2691   Anisotropy =    10.1870

     19  H    Isotropic =    30.7515   Anisotropy =     8.8727

     20  H    Isotropic =    30.6173   Anisotropy =     7.1638

     21  H    Isotropic =    30.5473   Anisotropy =    10.7237

     22  H    Isotropic =    30.4401   Anisotropy =     8.6227

     23  H    Isotropic =    30.4245   Anisotropy =     8.8724

 The electronic state is 1-A.
 Alpha  occ. eigenvalues --  -14.72265 -10.55145 -10.53284 -10.52867 -10.52815
 Alpha  occ. eigenvalues --  -10.52801 -10.52771 -10.52733  -0.98601  -0.92735
 Alpha  occ. eigenvalues --   -0.84224  -0.83390  -0.74420  -0.69148  -0.67740
 Alpha  occ. eigenvalues --   -0.61044  -0.57226  -0.54709  -0.51769  -0.50577
 Alpha  occ. eigenvalues --   -0.50417  -0.46908  -0.45390  -0.43958  -0.43025
 Alpha  occ. eigenvalues --   -0.41459  -0.41113  -0.39607  -0.37315  -0.35208
 Alpha  occ. eigenvalues --   -0.35046  -0.30134
 Alpha virt. eigenvalues --    0.05489   0.07399   0.07760   0.09340   0.11195
 Alpha virt. eigenvalues --    0.11319   0.12636   0.13166   0.13631   0.14278
 Alpha virt. eigenvalues --    0.15647   0.16638   0.17663   0.18515   0.19588

 Mulliken charges:
               1
     1  N   -0.526416
     2  C   -0.218900
     3  C   -0.068129
     4  C   -0.346253
     5  C   -0.291889
     6  C   -0.259599
     7  C   -0.315328
     8  C   -0.325173
     9  H    0.221814
    10  H    0.226945
    11  H    0.143640
    12  H    0.156065
    13  H    0.134899
    14  H    0.154725
    15  H    0.136103
    16  H    0.150081
    17  H    0.143347
    18  H    0.140918
    19  H    0.141519
    20  H    0.154910
    21  H    0.144089
    22  H    0.151148
    23  H    0.151485
 Sum of Mulliken charges =  -0.00000

 Dipole moment (field-independent basis, Debye):
    X=             -0.9584    Y=              0.3451    Z=              1.0864  Tot=              1.4893
 Quadrupole moment (field-independent basis, Debye-Ang):
   XX=            -57.4213   YY=            -51.5605   ZZ=            -53.6204
   XY=              0.9774   XZ=              4.5402   YZ=             -0.3793

 Normal termination of Gaussian 16 at Mon Feb 21 19:08:01 2022.
