 Gaussian 16, Revision C.01,

 ----------------------------------------------------------------------
 # B3LYP/6-31G(d,p) empiricaldispersion=GD3BJ int=(grid=ultrafine) opt
 freq=noraman
 ----------------------------------------------------------------------

 ------
 N2.xyz
 ------
 Symbolic Z-matrix:
 Charge =  0 Multiplicity = 1

 SCF Done:  E(RB3LYP) =  -330.580524604     A.U. after   12 cycles
 SCF Done:  E(RB3LYP) =  -330.587219992     A.U. after   11 cycles
 SCF Done:  E(RB3LYP) =  -330.588565375     A.U. after   10 cycles
 SCF Done:  E(RB3LYP) =  -330.589514760     A.U. after   10 cycles
 SCF Done:  E(RB3LYP) =  -330.589620112     A.U. after   10 cycles
 SCF Done:  E(RB3LYP) =  -330.589625302     A.U. after    7 cycles
 Optimization completed.
    -- Stationary point found.
 Normal termination of Gaussian 16 at Mon Feb 21 19:06:08 2022.

 ----------------------------------------------------------------------
 #N Geom=AllCheck Guess=TCheck SCRF=Check GenChk RB3LYP/6-31G(d,p) Freq
 ----------------------------------------------------------------------

 Structure from the checkpoint file:  "N2_conf-4.chk"
 ------
 N2.xyz
 ------
 Charge =  0 Multiplicity = 1

 SCF Done:  E(RB3LYP) =  -330.589625302     A.U. after    1 cycles

                      1                      2                      3
                      A                      A                      A
 Frequencies --     66.9414               143.5926               218.2404
 Red. masses --      2.0314                 2.8158                 1.9190
 Frc consts  --      0.0054                 0.0342                 0.0539
 IR Inten    --      1.5662                 0.0959                 0.3460

                      4                      5                      6
                      A                      A                      A
 Frequencies --    249.1347               300.7716               341.1353
 Red. masses --      3.1198                 1.3500                 1.8292
 Frc consts  --      0.1141                 0.0720                 0.1254
 IR Inten    --      1.7971                28.6212                 3.2171

                      7                      8                      9
                      A                      A                      A
 Frequencies --    389.7208               417.7437               449.3195
 Red. masses --      1.6566                 2.6460                 2.3702
 Frc consts  --      0.1482                 0.2721                 0.2819
 IR Inten    --      6.5965                 1.7795                 3.9484

                     10                     11                     12
                      A                      A                      A
 Frequencies --    490.1881               704.4506               726.1837
 Red. masses --      1.5098                 2.6004                 2.7405
 Frc consts  --      0.2137                 0.7603                 0.8515
 IR Inten    --      5.8175                15.0066                 0.0444

                     13                     14                     15
                      A                      A                      A
 Frequencies --    784.2673               829.7779               842.7359
 Red. masses --      1.5114                 2.3996                 1.6342
 Frc consts  --      0.5477                 0.9734                 0.6838
 IR Inten    --      0.5557                70.8489                 0.2241

                     16                     17                     18
                      A                      A                      A
 Frequencies --    863.9847               876.9440               890.2406
 Red. masses --      1.7931                 1.4658                 1.7555
 Frc consts  --      0.7886                 0.6642                 0.8197
 IR Inten    --    164.5232                 7.0674                 0.0589

                     19                     20                     21
                      A                      A                      A
 Frequencies --    949.7192               953.6577              1041.1738
 Red. masses --      1.3680                 2.2718                 2.1540
 Frc consts  --      0.7270                 1.2173                 1.3758
 IR Inten    --      1.7168                43.1004                 0.0586

                     22                     23                     24
                      A                      A                      A
 Frequencies --   1052.7669              1065.4643              1072.5120
 Red. masses --      1.5906                 2.2245                 2.1057
 Frc consts  --      1.0387                 1.4878                 1.4271
 IR Inten    --      0.2449                 8.4236                 5.6510

                     25                     26                     27
                      A                      A                      A
 Frequencies --   1104.4735              1121.0598              1144.2931
 Red. masses --      2.3034                 1.0747                 1.0408
 Frc consts  --      1.6555                 0.7958                 0.8030
 IR Inten    --      0.0023                 0.2698                 0.3111

                     28                     29                     30
                      A                      A                      A
 Frequencies --   1176.5828              1233.3947              1274.4180
 Red. masses --      2.3157                 1.3498                 1.2798
 Frc consts  --      1.8887                 1.2099                 1.2247
 IR Inten    --      3.2155                 2.1737                 4.4931

                     31                     32                     33
                      A                      A                      A
 Frequencies --   1301.5101              1308.1361              1347.8393
 Red. masses --      1.2586                 1.2121                 1.4502
 Frc consts  --      1.2561                 1.2220                 1.5522
 IR Inten    --      0.9874                 0.1242                 0.5096

                     34                     35                     36
                      A                      A                      A
 Frequencies --   1356.2067              1363.0384              1387.7687
 Red. masses --      1.6657                 1.3642                 1.3581
 Frc consts  --      1.8051                 1.4933                 1.5411
 IR Inten    --      2.6405                 0.0097                 5.7071

                     37                     38                     39
                      A                      A                      A
 Frequencies --   1388.9855              1392.6573              1403.8256
 Red. masses --      1.4167                 1.3978                 1.4084
 Frc consts  --      1.6103                 1.5973                 1.6353
 IR Inten    --      0.5687                 0.7760                 1.5900

                     40                     41                     42
                      A                      A                      A
 Frequencies --   1417.6980              1420.2645              1489.9574
 Red. masses --      1.2362                 1.3317                 1.0911
 Frc consts  --      1.4639                 1.5826                 1.4271
 IR Inten    --      0.2231                 7.6175                 2.7872

                     43                     44                     45
                      A                      A                      A
 Frequencies --   1493.5439              1500.0826              1501.7632
 Red. masses --      1.0843                 1.0911                 1.1008
 Frc consts  --      1.4251                 1.4467                 1.4627
 IR Inten    --      0.2843                 1.9984                 6.3737

                     46                     47                     48
                      A                      A                      A
 Frequencies --   1507.4564              1521.0236              1671.5215
 Red. masses --      1.0857                 1.1007                 1.0913
 Frc consts  --      1.4536                 1.5004                 1.7965
 IR Inten    --      9.6946                 2.3684                17.8633

                     49                     50                     51
                      A                      A                      A
 Frequencies --   2996.4147              3018.4762              3018.5742
 Red. masses --      1.0798                 1.0657                 1.0621
 Frc consts  --      5.7120                 5.7208                 5.7018
 IR Inten    --      8.2148                10.8469                27.8326

                     52                     53                     54
                      A                      A                      A
 Frequencies --   3020.9714              3031.6046              3037.3180
 Red. masses --      1.0614                 1.0667                 1.0628
 Frc consts  --      5.7069                 5.7764                 5.7769
 IR Inten    --     39.0091               104.9720                22.9016

                     55                     56                     57
                      A                      A                      A
 Frequencies --   3037.9766              3057.5587              3060.8654
 Red. masses --      1.0659                 1.0998                 1.0990
 Frc consts  --      5.7960                 6.0576                 6.0662
 IR Inten    --      8.8141                18.6196                23.3010

                     58                     59                     60
                      A                      A                      A
 Frequencies --   3064.5764              3071.4210              3076.8975
 Red. masses --      1.1030                 1.0942                 1.1043
 Frc consts  --      6.1032                 6.0819                 6.1599
 IR Inten    --     97.7099                55.4198                11.1637

                     61                     62                     63
                      A                      A                      A
 Frequencies --   3085.0035              3514.0330              3603.9243
 Red. masses --      1.1037                 1.0484                 1.0927
 Frc consts  --      6.1887                 7.6277                 8.3620
 IR Inten    --    130.4755                 1.1198                 0.0383

 - Thermochemistry -
 -------------------
 Temperature   298.150 Kelvin.  Pressure   1.00000 Atm.
 Atom     1 has atomic number  7 and mass  14.00307

 Molecular mass:   113.12045 amu.
 Principal axes and moments of inertia in atomic units:
                           1         2         3
     Eigenvalues --   667.902651092.327721182.91084
           X            0.99981   0.00000   0.01943
           Y           -0.00000   1.00000  -0.00000
           Z           -0.01943   0.00000   0.99981
 This molecule is an asymmetric top.
 Rotational symmetry number  1.
 Warning -- assumption of classical behavior for rotation
           may cause significant error
 Rotational temperatures (Kelvin)      0.12968     0.07929     0.07322
 Rotational constants (GHZ):           2.70210     1.65220     1.52568
 Zero-point vibrational energy     569684.3 (Joules/Mol)
                                  136.15782 (Kcal/Mol)
 Warning -- explicit consideration of  10 degrees of freedom as
           vibrations may cause significant error
 Vibrational temperatures:     96.31   206.60   314.00   358.45   432.74
          (Kelvin)            490.82   560.72   601.04   646.47   705.27
                             1013.55  1044.82  1128.39  1193.87  1212.51
                             1243.08  1261.73  1280.86  1366.43  1372.10
                             1498.02  1514.70  1532.97  1543.11  1589.09
                             1612.96  1646.38  1692.84  1774.58  1833.60
                             1872.58  1882.12  1939.24  1951.28  1961.11
                             1996.69  1998.44  2003.72  2019.79  2039.75
                             2043.44  2143.72  2148.88  2158.28  2160.70
                             2168.89  2188.41  2404.95  4311.17  4342.91
                             4343.05  4346.50  4361.80  4370.02  4370.97
                             4399.15  4403.90  4409.24  4419.09  4426.97
                             4438.63  5055.91  5185.24

 Zero-point correction=                           0.216981 (Hartree/Particle)
 Thermal correction to Energy=                    0.225242
 Thermal correction to Enthalpy=                  0.226187
 Thermal correction to Gibbs Free Energy=         0.184487
 Sum of electronic and zero-point Energies=           -330.372644
 Sum of electronic and thermal Energies=              -330.364383
 Sum of electronic and thermal Enthalpies=            -330.363439
 Sum of electronic and thermal Free Energies=         -330.405139

                     E (Thermal)             CV                S
                      KCal/Mol        Cal/Mol-Kelvin    Cal/Mol-Kelvin
 Total                  141.342             32.571             87.765
 Electronic               0.000              0.000              0.000
 Translational            0.889              2.981             40.085
 Rotational               0.889              2.981             28.247
 Vibrational            139.564             26.609             19.432
 Vibration     1          0.598              1.970              4.241
 Vibration     2          0.616              1.910              2.755
 Vibration     3          0.646              1.813              1.974
 Vibration     4          0.662              1.764              1.737
 Vibration     5          0.693              1.672              1.413
 Vibration     6          0.721              1.593              1.207
 Vibration     7          0.758              1.492              1.001
 Vibration     8          0.781              1.432              0.900
 Vibration     9          0.808              1.362              0.798
 Vibration    10          0.846              1.272              0.683

 Optimization completed.
    -- Stationary point found.
 Normal termination of Gaussian 16 at Mon Feb 21 19:06:33 2022.

 ----------------------------------------------------------------------
 # M062X/def2tzvp int=(grid=ultrafine) pop=nbo7 polar prop=efg volume g
 uess=read geom=check
 ----------------------------------------------------------------------

 ------
 N2.xyz
 ------
 Structure from the checkpoint file:  "N2_conf-4.chk"
 Charge =  0 Multiplicity = 1

 SCF Done:  E(RM062X) =  -330.487950120     A.U. after   11 cycles

  Exact polarizability:      92.123       0.000      86.520       1.852       0.000      83.442
 Approx polarizability:     103.699      -0.000     104.024       0.086       0.000     104.847

 Summary of Natural Population Analysis:

                                     Natural Population
             Natural    ---------------------------------------------
  Atom No    Charge        Core      Valence    Rydberg      Total
 --------------------------------------------------------------------
    N  1   -0.82946      1.99999     5.80428    0.02518     7.82946
    C  2   -0.21304      1.99999     4.19666    0.01639     6.21304
    C  3   -0.22756      1.99999     4.21512    0.01245     6.22756
    C  4   -0.40436      1.99999     4.39241    0.01195     6.40436
    C  5   -0.39615      1.99999     4.38555    0.01060     6.39615
    C  6   -0.39726      1.99999     4.38635    0.01092     6.39726
    C  7   -0.39615      1.99999     4.38555    0.01060     6.39615
    C  8   -0.40436      1.99999     4.39241    0.01195     6.40436
    H  9    0.34805      0.00000     0.65010    0.00184     0.65195
    H 10    0.34805      0.00000     0.65010    0.00184     0.65195
    H 11    0.18610      0.00000     0.81201    0.00189     0.81390
    H 12    0.18610      0.00000     0.81201    0.00189     0.81390
    H 13    0.20589      0.00000     0.79232    0.00179     0.79411
    H 14    0.20524      0.00000     0.79311    0.00165     0.79476
    H 15    0.20060      0.00000     0.79767    0.00173     0.79940
    H 16    0.18402      0.00000     0.81366    0.00232     0.81598
    H 17    0.20783      0.00000     0.79070    0.00146     0.79217
    H 18    0.20696      0.00000     0.79167    0.00137     0.79304
    H 19    0.19179      0.00000     0.80616    0.00205     0.80821
    H 20    0.18402      0.00000     0.81366    0.00232     0.81598
    H 21    0.20783      0.00000     0.79070    0.00146     0.79217
    H 22    0.20524      0.00000     0.79311    0.00165     0.79476
    H 23    0.20060      0.00000     0.79767    0.00173     0.79940
 ====================================================================
 * Total *  0.00000     15.99994    47.86300    0.13706    64.00000

 Normal termination of Gaussian 16 at Mon Feb 21 19:07:34 2022.
 Gaussian 16:  ES64L-G16RevC.01  3-Jul-2019

 --------------------------------------------------------------------
 # M062X/def2tzvp int=(grid=ultrafine) nmr=giao guess=read geom=check
 --------------------------------------------------------------------

 ------
 N2.xyz
 ------
 Structure from the checkpoint file:  "N2_conf-4.chk"
 Charge =  0 Multiplicity = 1

                         Standard orientation:
 ---------------------------------------------------------------------
 Center     Atomic      Atomic             Coordinates (Angstroms)
 Number     Number       Type             X           Y           Z
 ---------------------------------------------------------------------
      1          7           0       -1.945172    0.000005    1.300465
      2          6           0       -1.973242   -0.000002   -0.163744
      3          6           0       -0.659681   -0.000004   -0.981503
      4          6           0        0.197174    1.274078   -0.807834
      5          6           0        1.124220    1.262550    0.417907
      6          6           0        1.992511    0.000003    0.446559
      7          6           0        1.124222   -1.262546    0.417914
      8          6           0        0.197176   -1.274084   -0.807827
      9          1           0       -1.450642   -0.814941    1.650395
     10          1           0       -1.450641    0.814955    1.650386
     11          1           0       -2.557423    0.876735   -0.472488
     12          1           0       -2.557421   -0.876744   -0.472479
     13          1           0       -1.009002   -0.000008   -2.024580
     14          1           0       -0.455522    2.155939   -0.783507
     15          1           0        0.827966    1.385601   -1.700118
     16          1           0        0.537377    1.310564    1.343011
     17          1           0        1.755350    2.158896    0.408242
     18          1           0        2.639927    0.000005    1.330885
     19          1           0        2.656774    0.000000   -0.429501
     20          1           0        0.537378   -1.310554    1.343018
     21          1           0        1.755354   -2.158891    0.408257
     22          1           0       -0.455520   -2.155945   -0.783495
     23          1           0        0.827967   -1.385611   -1.700111
 ---------------------------------------------------------------------

 SCF Done:  E(RM062X) =  -330.487950120     A.U. after    1 cycles

      1  N    Isotropic =   220.0823   Anisotropy =    16.9235

      2  C    Isotropic =   127.2399   Anisotropy =    31.2334

      3  C    Isotropic =   147.6646   Anisotropy =    16.4966

      4  C    Isotropic =   153.0021   Anisotropy =    10.2047

      5  C    Isotropic =   158.2938   Anisotropy =     7.0463

      6  C    Isotropic =   157.5044   Anisotropy =     7.7712

      7  C    Isotropic =   158.2938   Anisotropy =     7.0463

      8  C    Isotropic =   153.0020   Anisotropy =    10.2048

      9  H    Isotropic =    31.5794   Anisotropy =     9.8017

     10  H    Isotropic =    31.5794   Anisotropy =     9.8017

     11  H    Isotropic =    28.9750   Anisotropy =     7.6843

     12  H    Isotropic =    28.9750   Anisotropy =     7.6843

     13  H    Isotropic =    30.5605   Anisotropy =     8.5714

     14  H    Isotropic =    30.1719   Anisotropy =     8.0919

     15  H    Isotropic =    30.3281   Anisotropy =     8.9848

     16  H    Isotropic =    30.3932   Anisotropy =     6.4584

     17  H    Isotropic =    30.2997   Anisotropy =    10.1727

     18  H    Isotropic =    30.1664   Anisotropy =     9.9910

     19  H    Isotropic =    30.7112   Anisotropy =     8.8623

     20  H    Isotropic =    30.3932   Anisotropy =     6.4584

     21  H    Isotropic =    30.2997   Anisotropy =    10.1727

     22  H    Isotropic =    30.1719   Anisotropy =     8.0919

     23  H    Isotropic =    30.3281   Anisotropy =     8.9848

 The electronic state is 1-A.
 Alpha  occ. eigenvalues --  -14.72097 -10.55227 -10.53338 -10.53004 -10.52998
 Alpha  occ. eigenvalues --  -10.52931 -10.52931 -10.52907  -0.98423  -0.92523
 Alpha  occ. eigenvalues --   -0.84653  -0.83578  -0.74761  -0.69448  -0.67133
 Alpha  occ. eigenvalues --   -0.61465  -0.56825  -0.55200  -0.52015  -0.50077
 Alpha  occ. eigenvalues --   -0.49846  -0.48148  -0.45894  -0.43841  -0.42240
 Alpha  occ. eigenvalues --   -0.41787  -0.41183  -0.38955  -0.38589  -0.35379
 Alpha  occ. eigenvalues --   -0.35047  -0.29516
 Alpha virt. eigenvalues --    0.05346   0.07175   0.08738   0.08963   0.11486
 Alpha virt. eigenvalues --    0.11633   0.12516   0.12836   0.13441   0.14155
 Alpha virt. eigenvalues --    0.15038   0.16353   0.17822   0.18128   0.19136

 Mulliken charges:
               1
     1  N   -0.516515
     2  C   -0.228869
     3  C   -0.047075
     4  C   -0.339751
     5  C   -0.288840
     6  C   -0.254984
     7  C   -0.288840
     8  C   -0.339751
     9  H    0.223902
    10  H    0.223902
    11  H    0.147421
    12  H    0.147421
    13  H    0.134680
    14  H    0.154145
    15  H    0.153968
    16  H    0.119443
    17  H    0.143757
    18  H    0.142218
    19  H    0.142455
    20  H    0.119443
    21  H    0.143757
    22  H    0.154144
    23  H    0.153968
 Sum of Mulliken charges =  -0.00000

 Dipole moment (field-independent basis, Debye):
    X=              1.4431    Y=             -0.0000    Z=             -0.5859  Tot=              1.5574
 Quadrupole moment (field-independent basis, Debye-Ang):
   XX=            -58.6770   YY=            -51.4979   ZZ=            -53.1532
   XY=              0.0000   XZ=              3.3901   YZ=             -0.0000

 Normal termination of Gaussian 16 at Mon Feb 21 19:08:01 2022.
