 Gaussian 16, Revision C.01,

 ----------------------------------------------------------------------
 # B3LYP/6-31G(d,p) empiricaldispersion=GD3BJ int=(grid=ultrafine) opt
 freq=noraman
 ----------------------------------------------------------------------

 ------
 N2.xyz
 ------
 Symbolic Z-matrix:
 Charge =  0 Multiplicity = 1

 SCF Done:  E(RB3LYP) =  -330.592305046     A.U. after   12 cycles
 SCF Done:  E(RB3LYP) =  -330.595209798     A.U. after   11 cycles
 SCF Done:  E(RB3LYP) =  -330.595611941     A.U. after   10 cycles
 SCF Done:  E(RB3LYP) =  -330.595631402     A.U. after    8 cycles
 SCF Done:  E(RB3LYP) =  -330.595632467     A.U. after    6 cycles
 Optimization completed.
    -- Stationary point found.
 Normal termination of Gaussian 16 at Mon Feb 21 19:06:03 2022.

 ----------------------------------------------------------------------
 #N Geom=AllCheck Guess=TCheck SCRF=Check GenChk RB3LYP/6-31G(d,p) Freq
 ----------------------------------------------------------------------

 Structure from the checkpoint file:  "N2_conf-2.chk"
 ------
 N2.xyz
 ------
 Charge =  0 Multiplicity = 1

 SCF Done:  E(RB3LYP) =  -330.595632467     A.U. after    1 cycles

                      1                      2                      3
                      A                      A                      A
 Frequencies --    103.4449               124.3781               232.3567
 Red. masses --      2.1238                 2.8363                 1.7885
 Frc consts  --      0.0134                 0.0259                 0.0569
 IR Inten    --      1.6297                 0.5204                 0.9234

                      4                      5                      6
                      A                      A                      A
 Frequencies --    265.8364               275.5051               345.6186
 Red. masses --      1.5341                 2.7996                 1.9656
 Frc consts  --      0.0639                 0.1252                 0.1383
 IR Inten    --     23.2705                 1.3148                 0.5217

                      7                      8                      9
                      A                      A                      A
 Frequencies --    354.4088               411.1725               451.0204
 Red. masses --      1.4188                 2.5299                 2.9938
 Frc consts  --      0.1050                 0.2520                 0.3588
 IR Inten    --     21.2728                 0.3949                 0.0000

                     10                     11                     12
                      A                      A                      A
 Frequencies --    506.3080               615.1532               782.2238
 Red. masses --      1.5006                 2.4215                 2.4163
 Frc consts  --      0.2266                 0.5399                 0.8711
 IR Inten    --      3.3672                20.7023                 0.5518

                     13                     14                     15
                      A                      A                      A
 Frequencies --    799.5800               846.6611               847.1722
 Red. masses --      1.4808                 2.5308                 1.5242
 Frc consts  --      0.5578                 1.0689                 0.6445
 IR Inten    --      0.0639                54.0989                 0.0764

                     16                     17                     18
                      A                      A                      A
 Frequencies --    875.8092               886.5118               912.6943
 Red. masses --      1.7261                 1.5888                 1.4054
 Frc consts  --      0.7801                 0.7357                 0.6897
 IR Inten    --    171.4593                 6.7038                 2.8575

                     19                     20                     21
                      A                      A                      A
 Frequencies --    941.4653               973.8623              1021.2822
 Red. masses --      1.6286                 2.2852                 1.8464
 Frc consts  --      0.8505                 1.2770                 1.1347
 IR Inten    --      0.0309                43.4120                 1.8848

                     22                     23                     24
                      A                      A                      A
 Frequencies --   1046.4484              1055.7646              1092.4019
 Red. masses --      1.7952                 1.4850                 1.0557
 Frc consts  --      1.1582                 0.9752                 0.7422
 IR Inten    --      0.4909                 0.1895                 0.2149

                     25                     26                     27
                      A                      A                      A
 Frequencies --   1101.3970              1129.1099              1161.3978
 Red. masses --      2.1576                 3.3060                 1.1804
 Frc consts  --      1.5421                 2.4833                 0.9381
 IR Inten    --      0.2962                 5.8678                 0.8239

                     28                     29                     30
                      A                      A                      A
 Frequencies --   1176.4100              1251.4657              1265.0834
 Red. masses --      2.4467                 1.4347                 1.3826
 Frc consts  --      1.9950                 1.3239                 1.3037
 IR Inten    --      5.2576                 0.0195                 0.6229

                     31                     32                     33
                      A                      A                      A
 Frequencies --   1297.8830              1302.1600              1331.1058
 Red. masses --      1.2740                 1.2619                 1.2848
 Frc consts  --      1.2645                 1.2606                 1.3413
 IR Inten    --      1.3929                 0.3094                 2.9256

                     34                     35                     36
                      A                      A                      A
 Frequencies --   1339.7658              1374.0303              1382.3987
 Red. masses --      1.3134                 1.3869                 1.3547
 Frc consts  --      1.3890                 1.5427                 1.5253
 IR Inten    --      0.0475                 0.6273                17.0585

                     37                     38                     39
                      A                      A                      A
 Frequencies --   1385.4178              1391.5725              1394.5448
 Red. masses --      1.3370                 1.4851                 1.5117
 Frc consts  --      1.5120                 1.6944                 1.7322
 IR Inten    --      0.7037                 0.0508                 2.2218

                     40                     41                     42
                      A                      A                      A
 Frequencies --   1414.6003              1420.7364              1496.2249
 Red. masses --      1.2755                 1.4445                 1.0886
 Frc consts  --      1.5038                 1.7179                 1.4359
 IR Inten    --      0.3744                 4.9648                 1.2665

                     43                     44                     45
                      A                      A                      A
 Frequencies --   1496.9993              1499.9675              1503.4896
 Red. masses --      1.0881                 1.0929                 1.0988
 Frc consts  --      1.4367                 1.4487                 1.4634
 IR Inten    --      0.1046                 3.1837                 1.2576

                     46                     47                     48
                      A                      A                      A
 Frequencies --   1507.2958              1521.3557              1671.8978
 Red. masses --      1.0856                 1.1002                 1.0904
 Frc consts  --      1.4532                 1.5003                 1.7957
 IR Inten    --      8.1635                 0.4415                13.3688

                     49                     50                     51
                      A                      A                      A
 Frequencies --   2991.4824              3010.4631              3016.4129
 Red. masses --      1.0810                 1.0629                 1.0628
 Frc consts  --      5.6996                 5.6754                 5.6975
 IR Inten    --      9.0360                23.2219                41.6323

                     52                     53                     54
                      A                      A                      A
 Frequencies --   3019.1187              3021.8996              3025.1765
 Red. masses --      1.0702                 1.0637                 1.0613
 Frc consts  --      5.7476                 5.7232                 5.7224
 IR Inten    --     14.7589                10.9453                47.3025

                     55                     56                     57
                      A                      A                      A
 Frequencies --   3031.0308              3058.7274              3062.6457
 Red. masses --      1.0616                 1.0984                 1.0986
 Frc consts  --      5.7461                 6.0549                 6.0714
 IR Inten    --     46.6107                47.6050                44.7201

                     58                     59                     60
                      A                      A                      A
 Frequencies --   3070.5147              3071.2544              3071.6830
 Red. masses --      1.1040                 1.1025                 1.0930
 Frc consts  --      6.1325                 6.1274                 6.0763
 IR Inten    --     89.7466                 3.7581                58.4158

                     61                     62                     63
                      A                      A                      A
 Frequencies --   3078.2523              3496.5736              3583.9430
 Red. masses --      1.1050                 1.0485                 1.0927
 Frc consts  --      6.1690                 7.5530                 8.2692
 IR Inten    --     97.6767                 1.3602                 0.2454

 - Thermochemistry -
 -------------------
 Temperature   298.150 Kelvin.  Pressure   1.00000 Atm.
 Atom     1 has atomic number  7 and mass  14.00307

 Molecular mass:   113.12045 amu.
 Principal axes and moments of inertia in atomic units:
                           1         2         3
     Eigenvalues --   510.169701322.583151564.54654
           X            0.99999  -0.00000   0.00360
           Y            0.00000   1.00000  -0.00000
           Z           -0.00360   0.00000   0.99999
 This molecule is an asymmetric top.
 Rotational symmetry number  1.
 Warning -- assumption of classical behavior for rotation
           may cause significant error
 Rotational temperatures (Kelvin)      0.16977     0.06549     0.05536
 Rotational constants (GHZ):           3.53753     1.36456     1.15352
 Zero-point vibrational energy     569378.0 (Joules/Mol)
                                  136.08461 (Kcal/Mol)
 Warning -- explicit consideration of  11 degrees of freedom as
           vibrations may cause significant error
 Vibrational temperatures:    148.83   178.95   334.31   382.48   396.39
          (Kelvin)            497.27   509.92   591.59   648.92   728.46
                              885.07  1125.45  1150.42  1218.16  1218.89
                             1260.09  1275.49  1313.16  1354.56  1401.17
                             1469.40  1505.61  1519.01  1571.72  1584.66
                             1624.54  1670.99  1692.59  1800.58  1820.17
                             1867.36  1873.52  1915.16  1927.62  1976.92
                             1988.96  1993.31  2002.16  2006.44  2035.29
                             2044.12  2152.73  2153.85  2158.12  2163.19
                             2168.66  2188.89  2405.49  4304.08  4331.38
                             4339.95  4343.84  4347.84  4352.55  4360.98
                             4400.83  4406.46  4417.79  4418.85  4419.47
                             4428.92  5030.79  5156.49

 Zero-point correction=                           0.216865 (Hartree/Particle)
 Thermal correction to Energy=                    0.225104
 Thermal correction to Enthalpy=                  0.226048
 Thermal correction to Gibbs Free Energy=         0.184509
 Sum of electronic and zero-point Energies=           -330.378768
 Sum of electronic and thermal Energies=              -330.370528
 Sum of electronic and thermal Enthalpies=            -330.369584
 Sum of electronic and thermal Free Energies=         -330.411124

                     E (Thermal)             CV                S
                      KCal/Mol        Cal/Mol-Kelvin    Cal/Mol-Kelvin
 Total                  141.255             32.564             87.427
 Electronic               0.000              0.000              0.000
 Translational            0.889              2.981             40.085
 Rotational               0.889              2.981             28.447
 Vibrational            139.478             26.602             18.894
 Vibration     1          0.605              1.946              3.388
 Vibration     2          0.610              1.929              3.031
 Vibration     3          0.653              1.791              1.861
 Vibration     4          0.672              1.736              1.623
 Vibration     5          0.677              1.719              1.561
 Vibration     6          0.724              1.584              1.186
 Vibration     7          0.730              1.566              1.147
 Vibration     8          0.775              1.446              0.922
 Vibration     9          0.810              1.359              0.793
 Vibration    10          0.862              1.236              0.643
 Vibration    11          0.975              1.000              0.424

 Optimization completed.
    -- Stationary point found.
 Normal termination of Gaussian 16 at Mon Feb 21 19:06:27 2022.

 ----------------------------------------------------------------------
 # M062X/def2tzvp int=(grid=ultrafine) pop=nbo7 polar prop=efg volume g
 uess=read geom=check
 ----------------------------------------------------------------------

 ------
 N2.xyz
 ------
 Structure from the checkpoint file:  "N2_conf-2.chk"
 Charge =  0 Multiplicity = 1

 SCF Done:  E(RM062X) =  -330.495434983     A.U. after   11 cycles

  Exact polarizability:      98.094      -0.000      87.055       0.648       0.000      79.727
 Approx polarizability:     103.698      -0.000     104.167      -0.736       0.000     105.484

 Summary of Natural Population Analysis:

                                     Natural Population
             Natural    ---------------------------------------------
  Atom No    Charge        Core      Valence    Rydberg      Total
 --------------------------------------------------------------------
    N  1   -0.82782      1.99999     5.80224    0.02559     7.82782
    C  2   -0.20620      1.99999     4.19104    0.01517     6.20620
    C  3   -0.22817      1.99999     4.21521    0.01296     6.22817
    C  4   -0.40277      1.99999     4.39082    0.01196     6.40277
    C  5   -0.39292      1.99999     4.38229    0.01063     6.39292
    C  6   -0.39594      1.99999     4.38538    0.01057     6.39594
    C  7   -0.39292      1.99999     4.38229    0.01063     6.39292
    C  8   -0.40277      1.99999     4.39082    0.01196     6.40277
    H  9    0.34825      0.00000     0.64997    0.00178     0.65175
    H 10    0.34825      0.00000     0.64997    0.00178     0.65175
    H 11    0.18748      0.00000     0.81072    0.00179     0.81252
    H 12    0.18748      0.00000     0.81072    0.00179     0.81252
    H 13    0.19429      0.00000     0.80339    0.00232     0.80571
    H 14    0.18687      0.00000     0.81019    0.00294     0.81313
    H 15    0.20681      0.00000     0.79162    0.00158     0.79319
    H 16    0.20656      0.00000     0.79198    0.00147     0.79344
    H 17    0.19226      0.00000     0.80581    0.00193     0.80774
    H 18    0.19114      0.00000     0.80695    0.00190     0.80886
    H 19    0.20762      0.00000     0.79102    0.00136     0.79238
    H 20    0.20656      0.00000     0.79198    0.00147     0.79344
    H 21    0.19226      0.00000     0.80581    0.00193     0.80774
    H 22    0.18687      0.00000     0.81019    0.00294     0.81313
    H 23    0.20681      0.00000     0.79162    0.00158     0.79319
 ====================================================================
 * Total *  0.00000     15.99994    47.86205    0.13801    64.00000

 Normal termination of Gaussian 16 at Mon Feb 21 19:07:28 2022.
 Gaussian 16:  ES64L-G16RevC.01  3-Jul-2019

 --------------------------------------------------------------------
 # M062X/def2tzvp int=(grid=ultrafine) nmr=giao guess=read geom=check
 --------------------------------------------------------------------

 ------
 N2.xyz
 ------
 Structure from the checkpoint file:  "N2_conf-2.chk"
 Charge =  0 Multiplicity = 1

                         Standard orientation:
 ---------------------------------------------------------------------
 Center     Atomic      Atomic             Coordinates (Angstroms)
 Number     Number       Type             X           Y           Z
 ---------------------------------------------------------------------
      1          7           0       -2.710389   -0.000000    0.773739
      2          6           0       -2.096707    0.000001   -0.556110
      3          6           0       -0.555399    0.000000   -0.634906
      4          6           0        0.062430    1.261931   -0.012033
      5          6           0        1.593195    1.265391   -0.114155
      6          6           0        2.196396   -0.000000    0.508315
      7          6           0        1.593194   -1.265392   -0.114156
      8          6           0        0.062430   -1.261931   -0.012034
      9          1           0       -2.406359   -0.814277    1.301451
     10          1           0       -2.406359    0.814277    1.301452
     11          1           0       -2.476480    0.878261   -1.093321
     12          1           0       -2.476480   -0.878259   -1.093322
     13          1           0       -0.298151    0.000000   -1.706096
     14          1           0       -0.221327    1.314175    1.049039
     15          1           0       -0.354036    2.156540   -0.492034
     16          1           0        2.003560    2.160654    0.367267
     17          1           0        1.882461    1.318587   -1.172959
     18          1           0        1.995676   -0.000000    1.589075
     19          1           0        3.286330   -0.000001    0.392431
     20          1           0        2.003560   -2.160654    0.367267
     21          1           0        1.882461   -1.318587   -1.172959
     22          1           0       -0.221328   -1.314175    1.049039
     23          1           0       -0.354037   -2.156539   -0.492035
 ---------------------------------------------------------------------

 SCF Done:  E(RM062X) =  -330.495434983     A.U. after    1 cycles

      1  N    Isotropic =   245.4541   Anisotropy =    34.5582

      2  C    Isotropic =   132.8534   Anisotropy =    25.7264

      3  C    Isotropic =   141.6261   Anisotropy =    28.6343

      4  C    Isotropic =   154.9364   Anisotropy =     8.3167

      5  C    Isotropic =   156.8941   Anisotropy =     4.9591

      6  C    Isotropic =   157.2060   Anisotropy =     6.4964

      7  C    Isotropic =   156.8941   Anisotropy =     4.9592

      8  C    Isotropic =   154.9364   Anisotropy =     8.3167

      9  H    Isotropic =    31.8351   Anisotropy =    12.7284

     10  H    Isotropic =    31.8351   Anisotropy =    12.7284

     11  H    Isotropic =    29.3134   Anisotropy =     8.1911

     12  H    Isotropic =    29.3134   Anisotropy =     8.1911

     13  H    Isotropic =    30.8135   Anisotropy =     6.4887

     14  H    Isotropic =    30.8025   Anisotropy =     5.8755

     15  H    Isotropic =    30.5861   Anisotropy =     9.1598

     16  H    Isotropic =    30.1696   Anisotropy =    10.2711

     17  H    Isotropic =    30.6633   Anisotropy =     8.7233

     18  H    Isotropic =    30.8831   Anisotropy =     8.4754

     19  H    Isotropic =    30.2864   Anisotropy =    10.2896

     20  H    Isotropic =    30.1696   Anisotropy =    10.2711

     21  H    Isotropic =    30.6633   Anisotropy =     8.7233

     22  H    Isotropic =    30.8025   Anisotropy =     5.8755

     23  H    Isotropic =    30.5861   Anisotropy =     9.1598

 The electronic state is 1-A.
 Alpha  occ. eigenvalues --  -14.72191 -10.55222 -10.53224 -10.52912 -10.52905
 Alpha  occ. eigenvalues --  -10.52853 -10.52852 -10.52827  -0.98564  -0.92810
 Alpha  occ. eigenvalues --   -0.84344  -0.83535  -0.74691  -0.69431  -0.66497
 Alpha  occ. eigenvalues --   -0.62673  -0.56084  -0.54686  -0.51499  -0.51033
 Alpha  occ. eigenvalues --   -0.50773  -0.47646  -0.45529  -0.44022  -0.43673
 Alpha  occ. eigenvalues --   -0.40888  -0.39662  -0.39516  -0.37474  -0.36407
 Alpha  occ. eigenvalues --   -0.35025  -0.30071
 Alpha virt. eigenvalues --    0.05948   0.06976   0.08333   0.08760   0.11540
 Alpha virt. eigenvalues --    0.11886   0.12463   0.12896   0.13653   0.14379
 Alpha virt. eigenvalues --    0.15717   0.15854   0.16843   0.17457   0.19010

 Mulliken charges:
               1
     1  N   -0.534090
     2  C   -0.172115
     3  C   -0.110127
     4  C   -0.320727
     5  C   -0.281111
     6  C   -0.276041
     7  C   -0.281111
     8  C   -0.320727
     9  H    0.226128
    10  H    0.226128
    11  H    0.149520
    12  H    0.149520
    13  H    0.132548
    14  H    0.129922
    15  H    0.148346
    16  H    0.141543
    17  H    0.145080
    18  H    0.139695
    19  H    0.142729
    20  H    0.141543
    21  H    0.145080
    22  H    0.129922
    23  H    0.148346
 Sum of Mulliken charges =  -0.00000

 Dipole moment (field-independent basis, Debye):
    X=              1.5399    Y=              0.0000    Z=              0.0694  Tot=              1.5414
 Quadrupole moment (field-independent basis, Debye-Ang):
   XX=            -61.9309   YY=            -51.5082   ZZ=            -51.0692
   XY=             -0.0000   XZ=              0.7097   YZ=              0.0000

 Normal termination of Gaussian 16 at Mon Feb 21 19:07:54 2022.
