 Gaussian 16, Revision C.01,

 ----------------------------------------------------------------------
 # B3LYP/6-31G(d,p) empiricaldispersion=GD3BJ int=(grid=ultrafine) opt
 freq=noraman
 ----------------------------------------------------------------------

 ------
 N3.xyz
 ------
 Symbolic Z-matrix:
 Charge =  0 Multiplicity = 1

 SCF Done:  E(RB3LYP) =  -825.870504295     A.U. after   14 cycles
 SCF Done:  E(RB3LYP) =  -825.873603680     A.U. after   12 cycles
 SCF Done:  E(RB3LYP) =  -825.874132463     A.U. after   12 cycles
 SCF Done:  E(RB3LYP) =  -825.874421748     A.U. after   11 cycles
 SCF Done:  E(RB3LYP) =  -825.874454084     A.U. after    9 cycles
 SCF Done:  E(RB3LYP) =  -825.874456757     A.U. after    9 cycles
 SCF Done:  E(RB3LYP) =  -825.874457078     A.U. after    7 cycles
 Optimization completed.
    -- Stationary point found.
 Normal termination of Gaussian 16 at Mon Feb 21 19:37:30 2022.

 ----------------------------------------------------------------------
 #N Geom=AllCheck Guess=TCheck SCRF=Check GenChk RB3LYP/6-31G(d,p) Freq
 ----------------------------------------------------------------------

 Structure from the checkpoint file:  "N3_conf-3.chk"
 ------
 N3.xyz
 ------
 Charge =  0 Multiplicity = 1

 SCF Done:  E(RB3LYP) =  -825.874457078     A.U. after    1 cycles

                      1                      2                      3
                      A                      A                      A
 Frequencies --     63.7575                90.6639               131.7219
 Red. masses --      4.2732                 4.4072                 2.5258
 Frc consts  --      0.0102                 0.0213                 0.0258
 IR Inten    --      0.2536                 0.1400                 1.9258

                      4                      5                      6
                      A                      A                      A
 Frequencies --    177.5968               253.1189               284.2703
 Red. masses --      3.2477                 4.6382                 3.2220
 Frc consts  --      0.0604                 0.1751                 0.1534
 IR Inten    --      1.6057                 4.3418                 7.1912

                      7                      8                      9
                      A                      A                      A
 Frequencies --    324.4868               384.7652               424.5727
 Red. masses --      1.3292                 3.4051                 3.4796
 Frc consts  --      0.0825                 0.2970                 0.3696
 IR Inten    --     40.5577                 0.2559                 5.3154

                     10                     11                     12
                      A                      A                      A
 Frequencies --    451.6250               472.3002               534.7061
 Red. masses --      2.9146                 3.3812                 4.4750
 Frc consts  --      0.3503                 0.4444                 0.7538
 IR Inten    --      4.2670                 1.4101                 3.2066

                     13                     14                     15
                      A                      A                      A
 Frequencies --    593.0207               688.2523               732.5108
 Red. masses --      3.1519                 5.9016                 3.5487
 Frc consts  --      0.6531                 1.6471                 1.1219
 IR Inten    --      0.3304                15.6149                 1.8754

                     16                     17                     18
                      A                      A                      A
 Frequencies --    768.3446               783.6661               857.6067
 Red. masses --      1.2258                 3.1957                 1.8466
 Frc consts  --      0.4264                 1.1563                 0.8002
 IR Inten    --     43.9597                 7.4294                 0.6896

                     19                     20                     21
                      A                      A                      A
 Frequencies --    879.2279               883.4178               937.8304
 Red. masses --      1.7452                 1.4769                 1.4735
 Frc consts  --      0.7949                 0.6791                 0.7636
 IR Inten    --     68.3084                97.9739                57.6167

                     22                     23                     24
                      A                      A                      A
 Frequencies --    954.7765               989.0008              1003.9770
 Red. masses --      1.3937                 1.2754                 2.1317
 Frc consts  --      0.7486                 0.7350                 1.2660
 IR Inten    --      1.6829                 0.6814                60.3137

                     25                     26                     27
                      A                      A                      A
 Frequencies --   1053.7767              1074.7445              1104.2732
 Red. masses --      5.4303                 2.1357                 2.0840
 Frc consts  --      3.5528                 1.4534                 1.4973
 IR Inten    --     36.9453                 5.2983                14.1050

                     28                     29                     30
                      A                      A                      A
 Frequencies --   1147.5747              1171.0007              1190.6939
 Red. masses --      1.6713                 1.3702                 1.0931
 Frc consts  --      1.2968                 1.1070                 0.9131
 IR Inten    --      2.9699                 4.2312                 0.1015

                     31                     32                     33
                      A                      A                      A
 Frequencies --   1227.1346              1248.0850              1311.5859
 Red. masses --      2.1493                 1.3752                 1.5097
 Frc consts  --      1.9069                 1.2621                 1.5301
 IR Inten    --      4.8628                 8.2256                 1.2740

                     34                     35                     36
                      A                      A                      A
 Frequencies --   1343.3123              1363.7325              1396.4831
 Red. masses --      2.5971                 1.9319                 1.2993
 Frc consts  --      2.7612                 2.1169                 1.4929
 IR Inten    --      3.1481                 0.8417                17.3987

                     37                     38                     39
                      A                      A                      A
 Frequencies --   1403.3610              1481.5747              1498.5626
 Red. masses --      1.1622                 2.1838                 1.1121
 Frc consts  --      1.3486                 2.8243                 1.4714
 IR Inten    --      1.6704                17.2350                 3.5006

                     40                     41                     42
                      A                      A                      A
 Frequencies --   1504.5048              1519.9208              1626.5584
 Red. masses --      1.1132                 2.4157                 5.7425
 Frc consts  --      1.4846                 3.2880                 8.9514
 IR Inten    --      3.7948                25.0909                 4.8142

                     43                     44                     45
                      A                      A                      A
 Frequencies --   1654.2761              1677.4801              3038.5361
 Red. masses --      6.0270                 1.0927                 1.0608
 Frc consts  --      9.7178                 1.8116                 5.7704
 IR Inten    --      1.6651                17.0093                31.9214

                     46                     47                     48
                      A                      A                      A
 Frequencies --   3051.0100              3081.4114              3113.4194
 Red. masses --      1.0644                 1.1055                 1.0991
 Frc consts  --      5.8377                 6.1844                 6.2771
 IR Inten    --     40.0221                33.7806                20.0977

                     49                     50                     51
                      A                      A                      A
 Frequencies --   3178.9829              3194.8881              3209.0271
 Red. masses --      1.0875                 1.0887                 1.0945
 Frc consts  --      6.4754                 6.5475                 6.6409
 IR Inten    --      5.7530                 7.4674                16.2870

                     52                     53                     54
                      A                      A                      A
 Frequencies --   3222.0633              3493.2061              3574.8650
 Red. masses --      1.0959                 1.0493                 1.0919
 Frc consts  --      6.7032                 7.5439                 8.2215
 IR Inten    --      6.1382                 0.3583                 0.0618

 - Thermochemistry -
 -------------------
 Temperature   298.150 Kelvin.  Pressure   1.00000 Atm.
 Atom     1 has atomic number 17 and mass  34.96885

 Molecular mass:   155.05018 amu.
 Principal axes and moments of inertia in atomic units:
                           1         2         3
     Eigenvalues --  1253.837981758.705272594.59432
           X            0.99866   0.05072   0.01046
           Y           -0.05093   0.99848   0.02122
           Z           -0.00937  -0.02172   0.99972
 This molecule is an asymmetric top.
 Rotational symmetry number  1.
 Warning -- assumption of classical behavior for rotation
           may cause significant error
 Rotational temperatures (Kelvin)      0.06908     0.04925     0.03338
 Rotational constants (GHZ):           1.43937     1.02618     0.69558
 Zero-point vibrational energy     435567.9 (Joules/Mol)
                                  104.10322 (Kcal/Mol)
 Warning -- explicit consideration of  13 degrees of freedom as
           vibrations may cause significant error
 Vibrational temperatures:     91.73   130.45   189.52   255.52   364.18
          (Kelvin)            409.00   466.86   553.59   610.87   649.79
                              679.53   769.32   853.22   990.24  1053.92
                             1105.48  1127.52  1233.90  1265.01  1271.04
                             1349.33  1373.71  1422.95  1444.50  1516.15
                             1546.32  1588.80  1651.10  1684.81  1713.14
                             1765.57  1795.72  1887.08  1932.73  1962.11
                             2009.23  2019.12  2131.66  2156.10  2164.65
                             2186.83  2340.25  2380.13  2413.52  4371.78
                             4389.72  4433.46  4479.52  4573.85  4596.73
                             4617.07  4635.83  5025.94  5143.43

 Zero-point correction=                           0.165899 (Hartree/Particle)
 Thermal correction to Energy=                    0.175330
 Thermal correction to Enthalpy=                  0.176274
 Thermal correction to Gibbs Free Energy=         0.130712
 Sum of electronic and zero-point Energies=           -825.708558
 Sum of electronic and thermal Energies=              -825.699127
 Sum of electronic and thermal Enthalpies=            -825.698183
 Sum of electronic and thermal Free Energies=         -825.743745

                     E (Thermal)             CV                S
                      KCal/Mol        Cal/Mol-Kelvin    Cal/Mol-Kelvin
 Total                  110.021             35.807             95.893
 Electronic               0.000              0.000              0.000
 Translational            0.889              2.981             41.025
 Rotational               0.889              2.981             30.127
 Vibrational            108.244             29.845             24.741
 Vibration     1          0.597              1.972              4.337
 Vibration     2          0.602              1.956              3.646
 Vibration     3          0.612              1.922              2.921
 Vibration     4          0.628              1.870              2.354
 Vibration     5          0.664              1.758              1.709
 Vibration     6          0.683              1.703              1.508
 Vibration     7          0.709              1.626              1.287
 Vibration     8          0.754              1.503              1.020
 Vibration     9          0.787              1.417              0.877
 Vibration    10          0.810              1.357              0.791
 Vibration    11          0.829              1.312              0.731
 Vibration    12          0.890              1.173              0.577
 Vibration    13          0.951              1.047              0.462

                           ! Non-Optimized Parameters !
 Normal termination of Gaussian 16 at Mon Feb 21 19:38:02 2022.

 ----------------------------------------------------------------------
 # M062X/def2tzvp int=(grid=ultrafine) pop=nbo7 polar prop=efg volume g
 uess=read geom=check
 ----------------------------------------------------------------------

 ------
 N3.xyz
 ------
 Structure from the checkpoint file:  "N3_conf-3.chk"
 Charge =  0 Multiplicity = 1

 SCF Done:  E(RM062X) =  -825.795971811     A.U. after   12 cycles

  Exact polarizability:     130.830      -5.697     121.047      10.636       5.345      78.484
 Approx polarizability:     157.703      -9.641     161.938      17.009       7.899     106.526

 Summary of Natural Population Analysis:

                                     Natural Population
             Natural    ---------------------------------------------
  Atom No    Charge        Core      Valence    Rydberg      Total
 --------------------------------------------------------------------
   Cl  1   -0.02468      9.99998     7.00735    0.01735    17.02468
    C  2   -0.02749      1.99999     4.00202    0.02548     6.02749
    C  3   -0.22800      1.99999     4.20949    0.01852     6.22800
    C  4   -0.20582      1.99999     4.18972    0.01611     6.20582
    C  5   -0.20992      1.99999     4.19360    0.01633     6.20992
    C  6   -0.19878      1.99999     4.18214    0.01666     6.19878
    C  7   -0.04378      1.99999     4.02317    0.02062     6.04378
    C  8   -0.44435      1.99999     4.43205    0.01231     6.44435
    C  9   -0.20139      1.99999     4.18693    0.01447     6.20139
    N 10   -0.82359      1.99999     5.79775    0.02584     7.82359
    H 11    0.23054      0.00000     0.76802    0.00145     0.76946
    H 12    0.22058      0.00000     0.77830    0.00112     0.77942
    H 13    0.21915      0.00000     0.77971    0.00113     0.78085
    H 14    0.21523      0.00000     0.78335    0.00143     0.78477
    H 15    0.21752      0.00000     0.78084    0.00164     0.78248
    H 16    0.22089      0.00000     0.77716    0.00196     0.77911
    H 17    0.18511      0.00000     0.81296    0.00193     0.81489
    H 18    0.19239      0.00000     0.80590    0.00171     0.80761
    H 19    0.35350      0.00000     0.64476    0.00174     0.64650
    H 20    0.35291      0.00000     0.64514    0.00194     0.64709
 ====================================================================
 * Total *  0.00000     27.99991    53.80035    0.19973    82.00000

 Normal termination of Gaussian 16 at Mon Feb 21 19:39:45 2022.
 Gaussian 16:  ES64L-G16RevC.01  3-Jul-2019

 --------------------------------------------------------------------
 # M062X/def2tzvp int=(grid=ultrafine) nmr=giao guess=read geom=check
 --------------------------------------------------------------------

 ------
 N3.xyz
 ------
 Structure from the checkpoint file:  "N3_conf-3.chk"
 Charge =  0 Multiplicity = 1

                         Standard orientation:
 ---------------------------------------------------------------------
 Center     Atomic      Atomic             Coordinates (Angstroms)
 Number     Number       Type             X           Y           Z
 ---------------------------------------------------------------------
      1         17           0       -0.522732    2.136416   -0.262129
      2          6           0        0.530534    0.722498   -0.129223
      3          6           0        1.822456    0.934837    0.353030
      4          6           0        2.695912   -0.142459    0.472194
      5          6           0        2.273020   -1.420294    0.105012
      6          6           0        0.981478   -1.607651   -0.377274
      7          6           0        0.073008   -0.546144   -0.511220
      8          6           0       -1.331139   -0.824427   -0.984506
      9          6           0       -2.248064   -1.324838    0.160971
     10          7           0       -2.414883   -0.434056    1.303621
     11          1           0        2.131147    1.936352    0.629268
     12          1           0        3.701087    0.020061    0.847454
     13          1           0        2.947591   -2.266046    0.190812
     14          1           0        0.652860   -2.602385   -0.665885
     15          1           0       -1.298610   -1.592474   -1.766409
     16          1           0       -1.767219    0.072304   -1.432604
     17          1           0       -1.856043   -2.278895    0.533520
     18          1           0       -3.238287   -1.536651   -0.259030
     19          1           0       -1.509205   -0.253317    1.731042
     20          1           0       -2.755915    0.471238    0.988760
 ---------------------------------------------------------------------

 SCF Done:  E(RM062X) =  -825.795971811     A.U. after    1 cycles

      1  Cl   Isotropic =   688.7691   Anisotropy =   428.2099

      2  C    Isotropic =    20.2215   Anisotropy =   131.0145

      3  C    Isotropic =    34.2150   Anisotropy =   181.9300

      4  C    Isotropic =    36.6808   Anisotropy =   209.4683

      5  C    Isotropic =    36.6073   Anisotropy =   213.2857

      6  C    Isotropic =    31.7555   Anisotropy =   197.2936

      7  C    Isotropic =    21.2395   Anisotropy =   218.4321

      8  C    Isotropic =   143.0792   Anisotropy =    16.9138

      9  C    Isotropic =   135.3101   Anisotropy =    20.8961

     10  N    Isotropic =   230.2285   Anisotropy =    36.8873

     11  H    Isotropic =    23.7196   Anisotropy =     9.2737

     12  H    Isotropic =    23.9387   Anisotropy =     5.4813

     13  H    Isotropic =    23.8663   Anisotropy =     5.6767

     14  H    Isotropic =    23.8608   Anisotropy =     9.1012

     15  H    Isotropic =    29.2875   Anisotropy =     8.3687

     16  H    Isotropic =    28.6129   Anisotropy =     4.0229

     17  H    Isotropic =    29.3591   Anisotropy =     8.3638

     18  H    Isotropic =    28.7536   Anisotropy =     8.6471

     19  H    Isotropic =    31.6733   Anisotropy =     8.6969

     20  H    Isotropic =    31.8405   Anisotropy =    11.9775

 The electronic state is 1-A.
 Alpha  occ. eigenvalues -- -102.64861 -14.72296 -10.61163 -10.56867 -10.56341
 Alpha  occ. eigenvalues --  -10.56005 -10.55691 -10.55663 -10.55489 -10.54383
 Alpha  occ. eigenvalues --   -9.81104  -7.53294  -7.52796  -7.52780  -1.00366
 Alpha  occ. eigenvalues --   -0.98380  -0.93901  -0.88581  -0.83718  -0.80655
 Alpha  occ. eigenvalues --   -0.72069  -0.69494  -0.66659  -0.59464  -0.57070
 Alpha  occ. eigenvalues --   -0.55300  -0.53456  -0.50574  -0.50306  -0.49824
 Alpha  occ. eigenvalues --   -0.48556  -0.45573  -0.44718  -0.42869  -0.41328
 Alpha  occ. eigenvalues --   -0.40705  -0.40456  -0.37651  -0.32356  -0.30997
 Alpha  occ. eigenvalues --   -0.29718
 Alpha virt. eigenvalues --    0.00418   0.00756   0.05864   0.06820   0.08495
 Alpha virt. eigenvalues --    0.09857   0.10299   0.11863   0.12304   0.12997
 Alpha virt. eigenvalues --    0.13914   0.14503   0.16953   0.17287   0.18431

 Mulliken charges:
               1
     1  Cl  -0.090277
     2  C   -0.032865
     3  C   -0.157339
     4  C   -0.143982
     5  C   -0.154741
     6  C   -0.134497
     7  C    0.127119
     8  C   -0.425636
     9  C   -0.157618
    10  N   -0.525625
    11  H    0.158937
    12  H    0.148491
    13  H    0.148009
    14  H    0.156644
    15  H    0.153225
    16  H    0.179875
    17  H    0.144772
    18  H    0.142195
    19  H    0.237531
    20  H    0.225783
 Sum of Mulliken charges =  -0.00000

 Dipole moment (field-independent basis, Debye):
    X=              1.6309    Y=             -0.9149    Z=             -0.8471  Tot=              2.0529
 Quadrupole moment (field-independent basis, Debye-Ang):
   XX=            -65.2338   YY=            -64.5263   ZZ=            -71.6349
   XY=             -1.8176   XZ=              7.2249   YZ=              3.4869

 Normal termination of Gaussian 16 at Mon Feb 21 19:40:28 2022.
