 Gaussian 16, Revision C.01,

 ----------------------------------------------------------------------
 # B3LYP/6-31G(d,p) empiricaldispersion=GD3BJ int=(grid=ultrafine) opt
 freq=noraman
 ----------------------------------------------------------------------

 ------
 N3.xyz
 ------
 Symbolic Z-matrix:
 Charge =  0 Multiplicity = 1

 SCF Done:  E(RB3LYP) =  -825.867731049     A.U. after   14 cycles
 SCF Done:  E(RB3LYP) =  -825.870959604     A.U. after   12 cycles
 SCF Done:  E(RB3LYP) =  -825.871007319     A.U. after   11 cycles
 SCF Done:  E(RB3LYP) =  -825.871332726     A.U. after   12 cycles
 SCF Done:  E(RB3LYP) =  -825.871470852     A.U. after   10 cycles
 SCF Done:  E(RB3LYP) =  -825.871498868     A.U. after   11 cycles
 SCF Done:  E(RB3LYP) =  -825.871514185     A.U. after   10 cycles
 SCF Done:  E(RB3LYP) =  -825.871522355     A.U. after   10 cycles
 SCF Done:  E(RB3LYP) =  -825.871525047     A.U. after   10 cycles
 SCF Done:  E(RB3LYP) =  -825.871527603     A.U. after   10 cycles
 SCF Done:  E(RB3LYP) =  -825.874086964     A.U. after   12 cycles
 SCF Done:  E(RB3LYP) =  -825.872442439     A.U. after   12 cycles
 SCF Done:  E(RB3LYP) =  -825.874402817     A.U. after   11 cycles
 SCF Done:  E(RB3LYP) =  -825.874451669     A.U. after   10 cycles
 SCF Done:  E(RB3LYP) =  -825.874455806     A.U. after    8 cycles
 SCF Done:  E(RB3LYP) =  -825.874456977     A.U. after    8 cycles
 SCF Done:  E(RB3LYP) =  -825.874457123     A.U. after    7 cycles
 Optimization completed.
    -- Stationary point found.
 Normal termination of Gaussian 16 at Mon Feb 21 19:27:12 2022.

 ----------------------------------------------------------------------
 #N Geom=AllCheck Guess=TCheck SCRF=Check GenChk RB3LYP/6-31G(d,p) Freq
 ----------------------------------------------------------------------

 Structure from the checkpoint file:  "N3_conf-4.chk"
 ------
 N3.xyz
 ------
 Charge =  0 Multiplicity = 1

 SCF Done:  E(RB3LYP) =  -825.874457123     A.U. after    1 cycles

                      1                      2                      3
                      A                      A                      A
 Frequencies --     63.8117                90.7162               131.8028
 Red. masses --      4.2740                 4.4105                 2.5258
 Frc consts  --      0.0103                 0.0214                 0.0259
 IR Inten    --      0.2527                 0.1390                 1.9239

                      4                      5                      6
                      A                      A                      A
 Frequencies --    177.6168               253.1374               284.2689
 Red. masses --      3.2452                 4.6389                 3.2173
 Frc consts  --      0.0603                 0.1751                 0.1532
 IR Inten    --      1.6087                 4.3406                 7.2314

                      7                      8                      9
                      A                      A                      A
 Frequencies --    324.3857               384.7591               424.5702
 Red. masses --      1.3298                 3.4089                 3.4814
 Frc consts  --      0.0824                 0.2973                 0.3697
 IR Inten    --     40.5450                 0.2547                 5.3119

                     10                     11                     12
                      A                      A                      A
 Frequencies --    451.6563               472.3102               534.7110
 Red. masses --      2.9128                 3.3812                 4.4754
 Frc consts  --      0.3501                 0.4444                 0.7539
 IR Inten    --      4.2728                 1.4097                 3.2118

                     13                     14                     15
                      A                      A                      A
 Frequencies --    593.0442               688.2479               732.5079
 Red. masses --      3.1516                 5.9030                 3.5496
 Frc consts  --      0.6531                 1.6475                 1.1222
 IR Inten    --      0.3285                15.6265                 1.8719

                     16                     17                     18
                      A                      A                      A
 Frequencies --    768.3769               783.6856               857.6496
 Red. masses --      1.2257                 3.1947                 1.8461
 Frc consts  --      0.4264                 1.1560                 0.8001
 IR Inten    --     43.9727                 7.4635                 0.6917

                     19                     20                     21
                      A                      A                      A
 Frequencies --    879.1721               883.3262               937.8651
 Red. masses --      1.7497                 1.4723                 1.4744
 Frc consts  --      0.7968                 0.6768                 0.7641
 IR Inten    --     72.2137                94.7804                57.2401

                     22                     23                     24
                      A                      A                      A
 Frequencies --    954.8052               989.0175              1003.9095
 Red. masses --      1.3939                 1.2755                 2.1304
 Frc consts  --      0.7487                 0.7351                 1.2650
 IR Inten    --      1.6835                 0.6876                60.1305

                     25                     26                     27
                      A                      A                      A
 Frequencies --   1053.7480              1074.7328              1104.3156
 Red. masses --      5.4373                 2.1352                 2.0853
 Frc consts  --      3.5572                 1.4531                 1.4983
 IR Inten    --     36.9983                 5.2764                14.0779

                     28                     29                     30
                      A                      A                      A
 Frequencies --   1147.5066              1171.0086              1190.6938
 Red. masses --      1.6713                 1.3698                 1.0932
 Frc consts  --      1.2966                 1.1067                 0.9132
 IR Inten    --      2.9592                 4.2318                 0.1018

                     31                     32                     33
                      A                      A                      A
 Frequencies --   1227.1571              1248.1390              1311.6116
 Red. masses --      2.1506                 1.3748                 1.5093
 Frc consts  --      1.9082                 1.2619                 1.5298
 IR Inten    --      4.8461                 8.2388                 1.2775

                     34                     35                     36
                      A                      A                      A
 Frequencies --   1343.3235              1363.7748              1396.4965
 Red. masses --      2.5967                 1.9320                 1.2993
 Frc consts  --      2.7608                 2.1171                 1.4929
 IR Inten    --      3.1446                 0.8433                17.3447

                     37                     38                     39
                      A                      A                      A
 Frequencies --   1403.3594              1481.5712              1498.5842
 Red. masses --      1.1624                 2.1837                 1.1121
 Frc consts  --      1.3488                 2.8241                 1.4715
 IR Inten    --      1.7099                17.2309                 3.5103

                     40                     41                     42
                      A                      A                      A
 Frequencies --   1504.5234              1519.9489              1626.5695
 Red. masses --      1.1132                 2.4154                 5.7419
 Frc consts  --      1.4847                 3.2878                 8.9506
 IR Inten    --      3.7966                25.0880                 4.8285

                     43                     44                     45
                      A                      A                      A
 Frequencies --   1654.2862              1677.4989              3038.4360
 Red. masses --      6.0284                 1.0927                 1.0608
 Frc consts  --      9.7202                 1.8116                 5.7699
 IR Inten    --      1.6573                17.0260                32.1676

                     46                     47                     48
                      A                      A                      A
 Frequencies --   3051.0163              3081.2437              3113.1958
 Red. masses --      1.0643                 1.1055                 1.0992
 Frc consts  --      5.8374                 6.1838                 6.2766
 IR Inten    --     39.7984                33.7842                20.1103

                     49                     50                     51
                      A                      A                      A
 Frequencies --   3178.8545              3194.8181              3208.9757
 Red. masses --      1.0875                 1.0887                 1.0945
 Frc consts  --      6.4749                 6.5472                 6.6408
 IR Inten    --      5.7791                 7.4579                16.2988

                     52                     53                     54
                      A                      A                      A
 Frequencies --   3222.0495              3493.3720              3575.0647
 Red. masses --      1.0959                 1.0493                 1.0919
 Frc consts  --      6.7030                 7.5446                 8.2225
 IR Inten    --      6.1138                 0.3561                 0.0620

 - Thermochemistry -
 -------------------
 Temperature   298.150 Kelvin.  Pressure   1.00000 Atm.
 Atom     1 has atomic number 17 and mass  34.96885

 Molecular mass:   155.05018 amu.
 Principal axes and moments of inertia in atomic units:
                           1         2         3
     Eigenvalues --  1253.802061758.632702594.43703
           X            0.99866   0.05075  -0.01046
           Y           -0.05096   0.99848  -0.02122
           Z            0.00937   0.02172   0.99972
 This molecule is an asymmetric top.
 Rotational symmetry number  1.
 Warning -- assumption of classical behavior for rotation
           may cause significant error
 Rotational temperatures (Kelvin)      0.06908     0.04925     0.03338
 Rotational constants (GHZ):           1.43941     1.02622     0.69562
 Zero-point vibrational energy     435567.7 (Joules/Mol)
                                  104.10317 (Kcal/Mol)
 Warning -- explicit consideration of  13 degrees of freedom as
           vibrations may cause significant error
 Vibrational temperatures:     91.81   130.52   189.63   255.55   364.21
          (Kelvin)            409.00   466.72   553.58   610.86   649.83
                              679.55   769.33   853.26   990.24  1053.92
                             1105.52  1127.55  1233.97  1264.93  1270.91
                             1349.38  1373.75  1422.98  1444.40  1516.11
                             1546.30  1588.86  1651.01  1684.82  1713.14
                             1765.61  1795.79  1887.12  1932.74  1962.17
                             2009.25  2019.12  2131.65  2156.13  2164.67
                             2186.87  2340.27  2380.15  2413.55  4371.63
                             4389.73  4433.22  4479.19  4573.66  4596.63
                             4617.00  4635.81  5026.18  5143.72

 Zero-point correction=                           0.165899 (Hartree/Particle)
 Thermal correction to Energy=                    0.175330
 Thermal correction to Enthalpy=                  0.176274
 Thermal correction to Gibbs Free Energy=         0.130714
 Sum of electronic and zero-point Energies=           -825.708558
 Sum of electronic and thermal Energies=              -825.699128
 Sum of electronic and thermal Enthalpies=            -825.698183
 Sum of electronic and thermal Free Energies=         -825.743743

                     E (Thermal)             CV                S
                      KCal/Mol        Cal/Mol-Kelvin    Cal/Mol-Kelvin
 Total                  110.021             35.806             95.889
 Electronic               0.000              0.000              0.000
 Translational            0.889              2.981             41.025
 Rotational               0.889              2.981             30.127
 Vibrational            108.243             29.845             24.737
 Vibration     1          0.597              1.972              4.336
 Vibration     2          0.602              1.956              3.645
 Vibration     3          0.612              1.922              2.920
 Vibration     4          0.628              1.870              2.353
 Vibration     5          0.664              1.757              1.709
 Vibration     6          0.683              1.703              1.508
 Vibration     7          0.709              1.627              1.288
 Vibration     8          0.754              1.503              1.020
 Vibration     9          0.787              1.417              0.877
 Vibration    10          0.810              1.357              0.791
 Vibration    11          0.829              1.311              0.731
 Vibration    12          0.890              1.173              0.577
 Vibration    13          0.951              1.047              0.462

 Optimization completed.
    -- Stationary point found.
 Normal termination of Gaussian 16 at Mon Feb 21 19:27:42 2022.

 ----------------------------------------------------------------------
 # M062X/def2tzvp int=(grid=ultrafine) pop=nbo7 polar prop=efg volume g
 uess=read geom=check
 ----------------------------------------------------------------------

 ------
 N3.xyz
 ------
 Structure from the checkpoint file:  "N3_conf-4.chk"
 Charge =  0 Multiplicity = 1

 SCF Done:  E(RM062X) =  -825.795972737     A.U. after   12 cycles

  Exact polarizability:     130.830      -5.695     121.045     -10.636      -5.346      78.486
 Approx polarizability:     157.704      -9.642     161.935     -17.010      -7.902     106.529

 Summary of Natural Population Analysis:

                                     Natural Population
             Natural    ---------------------------------------------
  Atom No    Charge        Core      Valence    Rydberg      Total
 --------------------------------------------------------------------
   Cl  1   -0.02475      9.99998     7.00743    0.01735    17.02475
    C  2   -0.02741      1.99999     4.00194    0.02548     6.02741
    C  3   -0.22802      1.99999     4.20950    0.01852     6.22802
    C  4   -0.20582      1.99999     4.18972    0.01611     6.20582
    C  5   -0.20993      1.99999     4.19361    0.01633     6.20993
    C  6   -0.19878      1.99999     4.18213    0.01666     6.19878
    C  7   -0.04379      1.99999     4.02317    0.02063     6.04379
    C  8   -0.44434      1.99999     4.43204    0.01231     6.44434
    C  9   -0.20139      1.99999     4.18693    0.01447     6.20139
    N 10   -0.82363      1.99999     5.79780    0.02584     7.82363
    H 11    0.23054      0.00000     0.76801    0.00145     0.76946
    H 12    0.22058      0.00000     0.77830    0.00112     0.77942
    H 13    0.21916      0.00000     0.77971    0.00113     0.78084
    H 14    0.21522      0.00000     0.78335    0.00143     0.78478
    H 15    0.21752      0.00000     0.78084    0.00164     0.78248
    H 16    0.22089      0.00000     0.77716    0.00196     0.77911
    H 17    0.18513      0.00000     0.81294    0.00193     0.81487
    H 18    0.19237      0.00000     0.80591    0.00171     0.80763
    H 19    0.35295      0.00000     0.64511    0.00194     0.64705
    H 20    0.35351      0.00000     0.64475    0.00174     0.64649
 ====================================================================
 * Total *  0.00000     27.99991    53.80036    0.19973    82.00000

 Normal termination of Gaussian 16 at Mon Feb 21 19:29:14 2022.
 Gaussian 16:  ES64L-G16RevC.01  3-Jul-2019

 --------------------------------------------------------------------
 # M062X/def2tzvp int=(grid=ultrafine) nmr=giao guess=read geom=check
 --------------------------------------------------------------------

 ------
 N3.xyz
 ------
 Structure from the checkpoint file:  "N3_conf-4.chk"
 Charge =  0 Multiplicity = 1

                         Standard orientation:
 ---------------------------------------------------------------------
 Center     Atomic      Atomic             Coordinates (Angstroms)
 Number     Number       Type             X           Y           Z
 ---------------------------------------------------------------------
      1         17           0        0.523129   -2.136296   -0.262226
      2          6           0       -0.530381   -0.722478   -0.129180
      3          6           0       -1.822252   -0.935062    0.353075
      4          6           0       -2.695875    0.142121    0.472231
      5          6           0       -2.273223    1.420001    0.104908
      6          6           0       -0.981699    1.607502   -0.377388
      7          6           0       -0.073015    0.546164   -0.511190
      8          6           0        1.331072    0.824688   -0.984482
      9          6           0        2.247901    1.325005    0.161084
     10          7           0        2.414558    0.434092    1.303628
     11          1           0       -2.130759   -1.936631    0.629325
     12          1           0       -3.701055   -0.020531    0.847445
     13          1           0       -2.947933    2.265663    0.190581
     14          1           0       -0.653266    2.602289   -0.666081
     15          1           0        1.298352    1.592849   -1.766249
     16          1           0        1.767321   -0.071966   -1.432652
     17          1           0        1.855887    2.279021    0.533761
     18          1           0        3.238137    1.536917   -0.258899
     19          1           0        2.753949   -0.471786    0.988712
     20          1           0        1.509109    0.254919    1.732155
 ---------------------------------------------------------------------

 SCF Done:  E(RM062X) =  -825.795972737     A.U. after    1 cycles

      1  Cl   Isotropic =   688.7176   Anisotropy =   428.3173

      2  C    Isotropic =    20.2219   Anisotropy =   130.9871

      3  C    Isotropic =    34.2190   Anisotropy =   181.9279

      4  C    Isotropic =    36.6782   Anisotropy =   209.4713

      5  C    Isotropic =    36.6037   Anisotropy =   213.2810

      6  C    Isotropic =    31.7547   Anisotropy =   197.2821

      7  C    Isotropic =    21.2429   Anisotropy =   218.4286

      8  C    Isotropic =   143.0745   Anisotropy =    16.9148

      9  C    Isotropic =   135.3109   Anisotropy =    20.9104

     10  N    Isotropic =   230.2375   Anisotropy =    36.9647

     11  H    Isotropic =    23.7196   Anisotropy =     9.2735

     12  H    Isotropic =    23.9386   Anisotropy =     5.4808

     13  H    Isotropic =    23.8660   Anisotropy =     5.6768

     14  H    Isotropic =    23.8609   Anisotropy =     9.1004

     15  H    Isotropic =    29.2874   Anisotropy =     8.3679

     16  H    Isotropic =    28.6117   Anisotropy =     4.0217

     17  H    Isotropic =    29.3595   Anisotropy =     8.3628

     18  H    Isotropic =    28.7525   Anisotropy =     8.6506

     19  H    Isotropic =    31.8399   Anisotropy =    11.9753

     20  H    Isotropic =    31.6731   Anisotropy =     8.6899

 The electronic state is 1-A.
 Alpha  occ. eigenvalues -- -102.64860 -14.72295 -10.61163 -10.56866 -10.56341
 Alpha  occ. eigenvalues --  -10.56006 -10.55691 -10.55663 -10.55489 -10.54383
 Alpha  occ. eigenvalues --   -9.81103  -7.53294  -7.52795  -7.52779  -1.00366
 Alpha  occ. eigenvalues --   -0.98379  -0.93900  -0.88581  -0.83718  -0.80655
 Alpha  occ. eigenvalues --   -0.72069  -0.69495  -0.66659  -0.59464  -0.57071
 Alpha  occ. eigenvalues --   -0.55298  -0.53456  -0.50577  -0.50307  -0.49824
 Alpha  occ. eigenvalues --   -0.48554  -0.45573  -0.44719  -0.42867  -0.41329
 Alpha  occ. eigenvalues --   -0.40703  -0.40458  -0.37650  -0.32355  -0.30996
 Alpha  occ. eigenvalues --   -0.29718
 Alpha virt. eigenvalues --    0.00418   0.00756   0.05862   0.06820   0.08495
 Alpha virt. eigenvalues --    0.09856   0.10297   0.11863   0.12305   0.12997
 Alpha virt. eigenvalues --    0.13913   0.14503   0.16952   0.17290   0.18431

 Mulliken charges:
               1
     1  Cl  -0.090335
     2  C   -0.032759
     3  C   -0.157395
     4  C   -0.143970
     5  C   -0.154752
     6  C   -0.134505
     7  C    0.127169
     8  C   -0.425674
     9  C   -0.157636
    10  N   -0.525651
    11  H    0.158946
    12  H    0.148492
    13  H    0.148013
    14  H    0.156628
    15  H    0.153205
    16  H    0.179905
    17  H    0.144801
    18  H    0.142186
    19  H    0.225793
    20  H    0.237540
 Sum of Mulliken charges =  -0.00000

 Dipole moment (field-independent basis, Debye):
    X=             -1.6331    Y=              0.9162    Z=             -0.8456  Tot=              2.0546
 Quadrupole moment (field-independent basis, Debye-Ang):
   XX=            -65.2467   YY=            -64.5242   ZZ=            -71.6290
   XY=             -1.8144   XZ=             -7.2237   YZ=             -3.4836

 Normal termination of Gaussian 16 at Mon Feb 21 19:29:48 2022.
