 Gaussian 16, Revision C.01,

 ----------------------------------------------------------------------
 # B3LYP/6-31G(d,p) empiricaldispersion=GD3BJ int=(grid=ultrafine) opt
 freq=noraman
 ----------------------------------------------------------------------

 ------
 N3.xyz
 ------
 Symbolic Z-matrix:
 Charge =  0 Multiplicity = 1

 SCF Done:  E(RB3LYP) =  -825.867641466     A.U. after   14 cycles
 SCF Done:  E(RB3LYP) =  -825.870606749     A.U. after   12 cycles
 SCF Done:  E(RB3LYP) =  -825.871059033     A.U. after   11 cycles
 SCF Done:  E(RB3LYP) =  -825.871205308     A.U. after   11 cycles
 SCF Done:  E(RB3LYP) =  -825.871250743     A.U. after   10 cycles
 SCF Done:  E(RB3LYP) =  -825.871279006     A.U. after   10 cycles
 SCF Done:  E(RB3LYP) =  -825.871295489     A.U. after    9 cycles
 SCF Done:  E(RB3LYP) =  -825.871297636     A.U. after    8 cycles
 Optimization completed.
    -- Stationary point found.
 Normal termination of Gaussian 16 at Mon Feb 21 19:20:46 2022.

 ----------------------------------------------------------------------
 #N Geom=AllCheck Guess=TCheck SCRF=Check GenChk RB3LYP/6-31G(d,p) Freq
 ----------------------------------------------------------------------

 Structure from the checkpoint file:  "N3_conf-8.chk"
 ------
 N3.xyz
 ------
 Charge =  0 Multiplicity = 1

 SCF Done:  E(RB3LYP) =  -825.871297636     A.U. after    1 cycles

                      1                      2                      3
                      A                      A                      A
 Frequencies --     69.6124                89.9436               132.0300
 Red. masses --      4.4799                 4.1954                 2.6379
 Frc consts  --      0.0128                 0.0200                 0.0271
 IR Inten    --      0.3751                 1.4104                 4.5194

                      4                      5                      6
                      A                      A                      A
 Frequencies --    179.2876               244.6693               271.0612
 Red. masses --      3.4159                 2.1926                 1.9622
 Frc consts  --      0.0647                 0.0773                 0.0849
 IR Inten    --      3.7336                12.0436                25.0756

                      7                      8                      9
                      A                      A                      A
 Frequencies --    292.8826               380.9047               426.4820
 Red. masses --      2.8214                 3.6562                 3.6350
 Frc consts  --      0.1426                 0.3125                 0.3895
 IR Inten    --     11.1846                 2.9935                 3.2856

                     10                     11                     12
                      A                      A                      A
 Frequencies --    449.9348               474.7847               533.5342
 Red. masses --      3.0991                 3.4712                 4.4889
 Frc consts  --      0.3696                 0.4610                 0.7529
 IR Inten    --      1.9231                 9.1344                 1.8890

                     13                     14                     15
                      A                      A                      A
 Frequencies --    598.1688               689.5879               735.1156
 Red. masses --      3.3108                 5.8745                 3.7069
 Frc consts  --      0.6980                 1.6459                 1.1802
 IR Inten    --      7.2401                15.1108                 2.2330

                     16                     17                     18
                      A                      A                      A
 Frequencies --    766.4501               790.0021               821.9995
 Red. masses --      1.2425                 2.4343                 1.7033
 Frc consts  --      0.4300                 0.8951                 0.6781
 IR Inten    --     41.5205                28.9943                91.0923

                     19                     20                     21
                      A                      A                      A
 Frequencies --    872.4958               897.9283               947.6231
 Red. masses --      1.3513                 1.9059                 1.3830
 Frc consts  --      0.6061                 0.9054                 0.7317
 IR Inten    --      4.6049                 7.2538                 1.2093

                     22                     23                     24
                      A                      A                      A
 Frequencies --    953.2070               984.4938              1035.6651
 Red. masses --      1.9811                 1.2652                 1.6854
 Frc consts  --      1.0605                 0.7225                 1.0651
 IR Inten    --      5.7574                 0.0366                 3.9934

                     25                     26                     27
                      A                      A                      A
 Frequencies --   1054.8616              1076.3466              1102.0012
 Red. masses --      5.2839                 2.1051                 2.3725
 Frc consts  --      3.4641                 1.4369                 1.6975
 IR Inten    --     41.7053                 5.9472                14.9783

                     28                     29                     30
                      A                      A                      A
 Frequencies --   1128.5645              1171.3400              1189.9744
 Red. masses --      1.5264                 1.3108                 1.0940
 Frc consts  --      1.1455                 1.0596                 0.9127
 IR Inten    --      6.5828                 2.8126                 0.0415

                     31                     32                     33
                      A                      A                      A
 Frequencies --   1230.9183              1274.0998              1304.6961
 Red. masses --      2.2999                 1.2232                 1.4687
 Frc consts  --      2.0531                 1.1699                 1.4730
 IR Inten    --      2.9240                 5.7425                 2.4296

                     34                     35                     36
                      A                      A                      A
 Frequencies --   1324.4354              1359.0576              1384.1241
 Red. masses --      1.7547                 2.6674                 1.4366
 Frc consts  --      1.8135                 2.9028                 1.6215
 IR Inten    --      0.6118                 1.8903                 2.2562

                     37                     38                     39
                      A                      A                      A
 Frequencies --   1430.9480              1483.1043              1503.1351
 Red. masses --      1.3940                 2.2060                 1.1051
 Frc consts  --      1.6818                 2.8589                 1.4711
 IR Inten    --     15.4436                16.9328                 6.5651

                     40                     41                     42
                      A                      A                      A
 Frequencies --   1520.4083              1528.6215              1629.8360
 Red. masses --      2.0006                 1.2323                 5.7694
 Frc consts  --      2.7248                 1.6965                 9.0296
 IR Inten    --     23.0749                 5.7463                 6.6202

                     43                     44                     45
                      A                      A                      A
 Frequencies --   1656.1486              1667.6648              2945.9433
 Red. masses --      5.8416                 1.1066                 1.0731
 Frc consts  --      9.4403                 1.8133                 5.4873
 IR Inten    --      4.0837                32.7520               118.1817

                     46                     47                     48
                      A                      A                      A
 Frequencies --   3054.0516              3059.3922              3109.3781
 Red. masses --      1.0843                 1.0677                 1.1004
 Frc consts  --      5.9587                 5.8882                 6.2681
 IR Inten    --     20.6233                35.4694                17.3225

                     49                     50                     51
                      A                      A                      A
 Frequencies --   3175.3279              3192.3677              3206.9665
 Red. masses --      1.0874                 1.0886                 1.0946
 Frc consts  --      6.4598                 6.5364                 6.6330
 IR Inten    --      7.7100                 8.9996                19.8165

                     52                     53                     54
                      A                      A                      A
 Frequencies --   3221.3792              3500.7262              3589.6385
 Red. masses --      1.0956                 1.0493                 1.0934
 Frc consts  --      6.6985                 7.5765                 8.3006
 IR Inten    --      7.0239                 0.8208                 0.2146

 - Thermochemistry -
 -------------------
 Temperature   298.150 Kelvin.  Pressure   1.00000 Atm.
 Atom     1 has atomic number 17 and mass  34.96885

 Molecular mass:   155.05018 amu.
 Principal axes and moments of inertia in atomic units:
                           1         2         3
     Eigenvalues --  1246.078021755.394062598.49184
           X            0.99819   0.06010   0.00355
           Y           -0.06015   0.99805   0.01680
           Z           -0.00253  -0.01699   0.99985
 This molecule is an asymmetric top.
 Rotational symmetry number  1.
 Warning -- assumption of classical behavior for rotation
           may cause significant error
 Rotational temperatures (Kelvin)      0.06951     0.04934     0.03333
 Rotational constants (GHZ):           1.44834     1.02811     0.69453
 Zero-point vibrational energy     434922.2 (Joules/Mol)
                                  103.94891 (Kcal/Mol)
 Warning -- explicit consideration of  13 degrees of freedom as
           vibrations may cause significant error
 Vibrational temperatures:    100.16   129.41   189.96   257.95   352.02
          (Kelvin)            390.00   421.39   548.04   613.61   647.36
                              683.11   767.64   860.63   992.16  1057.67
                             1102.75  1136.64  1182.67  1255.33  1291.92
                             1363.42  1371.45  1416.47  1490.09  1517.71
                             1548.62  1585.53  1623.75  1685.30  1712.11
                             1771.02  1833.15  1877.17  1905.57  1955.38
                             1991.45  2058.82  2133.86  2162.68  2187.53
                             2199.35  2344.97  2382.83  2399.40  4238.56
                             4394.10  4401.78  4473.70  4568.59  4593.11
                             4614.11  4634.85  5036.76  5164.69

 Zero-point correction=                           0.165653 (Hartree/Particle)
 Thermal correction to Energy=                    0.175138
 Thermal correction to Enthalpy=                  0.176082
 Thermal correction to Gibbs Free Energy=         0.130460
 Sum of electronic and zero-point Energies=           -825.705645
 Sum of electronic and thermal Energies=              -825.696160
 Sum of electronic and thermal Enthalpies=            -825.695216
 Sum of electronic and thermal Free Energies=         -825.740838

                     E (Thermal)             CV                S
                      KCal/Mol        Cal/Mol-Kelvin    Cal/Mol-Kelvin
 Total                  109.901             35.884             96.019
 Electronic               0.000              0.000              0.000
 Translational            0.889              2.981             41.025
 Rotational               0.889              2.981             30.120
 Vibrational            108.123             29.923             24.874
 Vibration     1          0.598              1.969              4.164
 Vibration     2          0.602              1.956              3.661
 Vibration     3          0.612              1.921              2.916
 Vibration     4          0.629              1.868              2.336
 Vibration     5          0.660              1.772              1.769
 Vibration     6          0.675              1.727              1.589
 Vibration     7          0.688              1.687              1.457
 Vibration     8          0.751              1.511              1.036
 Vibration     9          0.788              1.413              0.870
 Vibration    10          0.809              1.361              0.796
 Vibration    11          0.831              1.306              0.724
 Vibration    12          0.889              1.176              0.579
 Vibration    13          0.956              1.036              0.453

 Optimization completed.
    -- Stationary point found.
 Normal termination of Gaussian 16 at Mon Feb 21 19:21:07 2022.

 ----------------------------------------------------------------------
 # M062X/def2tzvp int=(grid=ultrafine) pop=nbo7 polar prop=efg volume g
 uess=read geom=check
 ----------------------------------------------------------------------

 ------
 N3.xyz
 ------
 Structure from the checkpoint file:  "N3_conf-8.chk"
 Charge =  0 Multiplicity = 1

 SCF Done:  E(RM062X) =  -825.793870739     A.U. after   12 cycles

  Exact polarizability:     131.036      -5.377     121.672      10.372       5.083      78.812
 Approx polarizability:     156.042      -9.065     162.530      16.378       7.193     106.352

 Summary of Natural Population Analysis:

                                     Natural Population
             Natural    ---------------------------------------------
  Atom No    Charge        Core      Valence    Rydberg      Total
 --------------------------------------------------------------------
   Cl  1   -0.02776      9.99998     7.01086    0.01693    17.02776
    C  2   -0.00952      1.99999     3.98509    0.02444     6.00952
    C  3   -0.22645      1.99999     4.20824    0.01822     6.22645
    C  4   -0.20685      1.99999     4.19076    0.01609     6.20685
    C  5   -0.21207      1.99999     4.19573    0.01635     6.21207
    C  6   -0.19817      1.99999     4.18169    0.01649     6.19817
    C  7   -0.03208      1.99999     4.01069    0.02139     6.03208
    C  8   -0.42927      1.99999     4.41610    0.01317     6.42927
    C  9   -0.19910      1.99999     4.18638    0.01273     6.19910
    N 10   -0.83594      1.99999     5.81047    0.02548     7.83594
    H 11    0.22837      0.00000     0.77019    0.00145     0.77163
    H 12    0.21825      0.00000     0.78062    0.00113     0.78175
    H 13    0.21658      0.00000     0.78227    0.00115     0.78342
    H 14    0.21139      0.00000     0.78718    0.00144     0.78861
    H 15    0.21848      0.00000     0.78014    0.00138     0.78152
    H 16    0.22026      0.00000     0.77776    0.00198     0.77974
    H 17    0.18516      0.00000     0.81295    0.00189     0.81484
    H 18    0.16601      0.00000     0.83187    0.00212     0.83399
    H 19    0.35487      0.00000     0.64291    0.00222     0.64513
    H 20    0.35784      0.00000     0.64063    0.00153     0.64216
 ====================================================================
 * Total *  0.00000     27.99991    53.80253    0.19756    82.00000

 Normal termination of Gaussian 16 at Mon Feb 21 19:22:21 2022.
 Gaussian 16:  ES64L-G16RevC.01  3-Jul-2019

 --------------------------------------------------------------------
 # M062X/def2tzvp int=(grid=ultrafine) nmr=giao guess=read geom=check
 --------------------------------------------------------------------

 ------
 N3.xyz
 ------
 Structure from the checkpoint file:  "N3_conf-8.chk"
 Charge =  0 Multiplicity = 1

                         Standard orientation:
 ---------------------------------------------------------------------
 Center     Atomic      Atomic             Coordinates (Angstroms)
 Number     Number       Type             X           Y           Z
 ---------------------------------------------------------------------
      1         17           0       -0.487714    2.142624   -0.254523
      2          6           0        0.549255    0.718359   -0.117433
      3          6           0        1.843804    0.916717    0.359881
      4          6           0        2.705360   -0.170894    0.478739
      5          6           0        2.267264   -1.443776    0.114651
      6          6           0        0.971623   -1.616307   -0.363800
      7          6           0        0.076478   -0.545178   -0.490428
      8          6           0       -1.326655   -0.803253   -0.981022
      9          6           0       -2.267771   -1.305185    0.126933
     10          7           0       -2.322431   -0.358258    1.237549
     11          1           0        2.164658    1.914746    0.634732
     12          1           0        3.713524   -0.019546    0.850925
     13          1           0        2.932869   -2.296974    0.198364
     14          1           0        0.630958   -2.607568   -0.651057
     15          1           0       -1.297748   -1.559846   -1.773018
     16          1           0       -1.744935    0.103909   -1.426190
     17          1           0       -1.879258   -2.254302    0.516296
     18          1           0       -3.245346   -1.528983   -0.336659
     19          1           0       -2.698664    0.532008    0.921979
     20          1           0       -2.944059   -0.703145    1.963560
 ---------------------------------------------------------------------

 SCF Done:  E(RM062X) =  -825.793870739     A.U. after    1 cycles

      1  Cl   Isotropic =   689.9055   Anisotropy =   425.9879

      2  C    Isotropic =    19.0162   Anisotropy =   132.6199

      3  C    Isotropic =    34.7391   Anisotropy =   181.1552

      4  C    Isotropic =    37.2989   Anisotropy =   208.0963

      5  C    Isotropic =    37.7602   Anisotropy =   211.3520

      6  C    Isotropic =    33.1835   Anisotropy =   195.3327

      7  C    Isotropic =    20.8411   Anisotropy =   217.9033

      8  C    Isotropic =   147.3842   Anisotropy =    21.2897

      9  C    Isotropic =   136.1042   Anisotropy =    19.9122

     10  N    Isotropic =   230.7775   Anisotropy =    46.2594

     11  H    Isotropic =    23.7838   Anisotropy =     9.3234

     12  H    Isotropic =    23.9916   Anisotropy =     5.4480

     13  H    Isotropic =    23.9386   Anisotropy =     5.6299

     14  H    Isotropic =    23.8672   Anisotropy =     9.1127

     15  H    Isotropic =    29.2945   Anisotropy =     8.4951

     16  H    Isotropic =    28.5676   Anisotropy =     4.4481

     17  H    Isotropic =    29.2452   Anisotropy =     7.7860

     18  H    Isotropic =    28.4612   Anisotropy =     9.1210

     19  H    Isotropic =    31.5543   Anisotropy =    11.1842

     20  H    Isotropic =    31.6977   Anisotropy =    16.5623

 The electronic state is 1-A.
 Alpha  occ. eigenvalues -- -102.63913 -14.72470 -10.60131 -10.56424 -10.55937
 Alpha  occ. eigenvalues --  -10.55004 -10.54757 -10.54735 -10.54562 -10.54225
 Alpha  occ. eigenvalues --   -9.80158  -7.52348  -7.51850  -7.51839  -0.99718
 Alpha  occ. eigenvalues --   -0.98162  -0.92963  -0.88016  -0.82858  -0.80309
 Alpha  occ. eigenvalues --   -0.71371  -0.68635  -0.65921  -0.58695  -0.56745
 Alpha  occ. eigenvalues --   -0.54188  -0.54084  -0.51655  -0.49392  -0.48733
 Alpha  occ. eigenvalues --   -0.46850  -0.45968  -0.43397  -0.42273  -0.41042
 Alpha  occ. eigenvalues --   -0.40262  -0.39488  -0.36852  -0.30969  -0.30585
 Alpha  occ. eigenvalues --   -0.29353
 Alpha virt. eigenvalues --    0.01421   0.01765   0.06458   0.06715   0.08872
 Alpha virt. eigenvalues --    0.10317   0.10683   0.12253   0.13087   0.13565
 Alpha virt. eigenvalues --    0.14391   0.14890   0.16791   0.17437   0.18410

 Mulliken charges:
               1
     1  Cl  -0.104568
     2  C    0.028976
     3  C   -0.172559
     4  C   -0.145551
     5  C   -0.153026
     6  C   -0.163478
     7  C    0.212819
     8  C   -0.473641
     9  C   -0.133624
    10  N   -0.553388
    11  H    0.154083
    12  H    0.144636
    13  H    0.143631
    14  H    0.150571
    15  H    0.158940
    16  H    0.183849
    17  H    0.134963
    18  H    0.125121
    19  H    0.234677
    20  H    0.227566
 Sum of Mulliken charges =  -0.00000

 Dipole moment (field-independent basis, Debye):
    X=             -0.6977    Y=             -1.6386    Z=             -0.1331  Tot=              1.7859
 Quadrupole moment (field-independent basis, Debye-Ang):
   XX=            -56.5972   YY=            -64.2926   ZZ=            -69.5355
   XY=              0.9931   XZ=              0.9388   YZ=              1.3874

 Normal termination of Gaussian 16 at Mon Feb 21 19:22:49 2022.
