 Gaussian 16, Revision C.01,

 ----------------------------------------------------------------------
 # B3LYP/6-31G(d,p) empiricaldispersion=GD3BJ int=(grid=ultrafine) opt
 freq=noraman
 ----------------------------------------------------------------------

 ------
 N3.xyz
 ------
 Symbolic Z-matrix:
 Charge =  0 Multiplicity = 1

 SCF Done:  E(RB3LYP) =  -825.871168821     A.U. after   14 cycles
 SCF Done:  E(RB3LYP) =  -825.873789981     A.U. after   11 cycles
 SCF Done:  E(RB3LYP) =  -825.874132772     A.U. after   11 cycles
 SCF Done:  E(RB3LYP) =  -825.874207600     A.U. after   11 cycles
 SCF Done:  E(RB3LYP) =  -825.874224490     A.U. after    9 cycles
 SCF Done:  E(RB3LYP) =  -825.874236567     A.U. after    9 cycles
 SCF Done:  E(RB3LYP) =  -825.874239547     A.U. after    8 cycles
 SCF Done:  E(RB3LYP) =  -825.874239928     A.U. after    7 cycles
 Optimization completed.
    -- Stationary point found.
 Normal termination of Gaussian 16 at Mon Feb 21 19:25:43 2022.

 ----------------------------------------------------------------------
 #N Geom=AllCheck Guess=TCheck SCRF=Check GenChk RB3LYP/6-31G(d,p) Freq
 ----------------------------------------------------------------------

 Structure from the checkpoint file:  "N3_conf-1.chk"
 ------
 N3.xyz
 ------
 Charge =  0 Multiplicity = 1

 SCF Done:  E(RB3LYP) =  -825.874239928     A.U. after    1 cycles

                      1                      2                      3
                      A                      A                      A
 Frequencies --     58.9624                90.2598               135.0751
 Red. masses --      4.2119                 4.3292                 2.7012
 Frc consts  --      0.0086                 0.0208                 0.0290
 IR Inten    --      1.8609                 0.6860                 5.6438

                      4                      5                      6
                      A                      A                      A
 Frequencies --    179.2097               249.1288               274.5381
 Red. masses --      3.5617                 4.6561                 1.2401
 Frc consts  --      0.0674                 0.1703                 0.0551
 IR Inten    --      1.9206                 3.3858                68.3484

                      7                      8                      9
                      A                      A                      A
 Frequencies --    325.1554               361.7936               435.1236
 Red. masses --      2.8392                 5.0369                 3.6325
 Frc consts  --      0.1769                 0.3884                 0.4052
 IR Inten    --     12.6674                 3.9509                 5.7806

                     10                     11                     12
                      A                      A                      A
 Frequencies --    456.4942               473.5968               535.0727
 Red. masses --      2.5567                 3.4382                 4.6235
 Frc consts  --      0.3139                 0.4544                 0.7799
 IR Inten    --      2.9369                 7.0761                 3.7229

                     13                     14                     15
                      A                      A                      A
 Frequencies --    593.8909               688.5164               738.5352
 Red. masses --      3.3884                 6.0154                 4.1737
 Frc consts  --      0.7041                 1.6801                 1.3413
 IR Inten    --      1.9775                12.9670                 1.0911

                     16                     17                     18
                      A                      A                      A
 Frequencies --    767.6362               795.6689               864.3915
 Red. masses --      1.2312                 3.3822                 1.5995
 Frc consts  --      0.4274                 1.2616                 0.7041
 IR Inten    --     42.5645                11.3617                69.4598

                     19                     20                     21
                      A                      A                      A
 Frequencies --    867.0614               898.7860               925.3206
 Red. masses --      1.3244                 1.5268                 2.0807
 Frc consts  --      0.5866                 0.7267                 1.0496
 IR Inten    --      9.9808                23.0080                 0.5446

                     22                     23                     24
                      A                      A                      A
 Frequencies --    953.1618               988.0384              1041.9893
 Red. masses --      1.3641                 1.2676                 2.8888
 Frc consts  --      0.7302                 0.7291                 1.8480
 IR Inten    --      2.0327                 0.0327                 2.5111

                     25                     26                     27
                      A                      A                      A
 Frequencies --   1070.2936              1074.9505              1109.5768
 Red. masses --      3.3555                 2.1355                 2.0436
 Frc consts  --      2.2647                 1.4539                 1.4824
 IR Inten    --     70.1020                 2.1339                 8.3059

                     28                     29                     30
                      A                      A                      A
 Frequencies --   1157.0407              1170.4272              1190.1663
 Red. masses --      1.6109                 1.3190                 1.0905
 Frc consts  --      1.2706                 1.0646                 0.9101
 IR Inten    --      2.9822                 2.3960                 0.0860

                     31                     32                     33
                      A                      A                      A
 Frequencies --   1220.2380              1233.9742              1311.8638
 Red. masses --      1.3084                 2.1197                 1.4676
 Frc consts  --      1.1478                 1.9017                 1.4881
 IR Inten    --      0.7302                 1.3784                 0.5381

                     34                     35                     36
                      A                      A                      A
 Frequencies --   1343.2569              1358.1683              1370.1167
 Red. masses --      1.8483                 2.1197                 1.3727
 Frc consts  --      1.9649                 2.3037                 1.5182
 IR Inten    --      2.5942                 1.4690                 2.5718

                     37                     38                     39
                      A                      A                      A
 Frequencies --   1427.2820              1480.5891              1497.0631
 Red. masses --      1.3876                 2.0014                 1.1938
 Frc consts  --      1.6654                 2.5849                 1.5763
 IR Inten    --     15.6401                13.5385                 8.4168

                     40                     41                     42
                      A                      A                      A
 Frequencies --   1518.9169              1527.4681              1626.8932
 Red. masses --      2.3075                 1.1114                 5.6880
 Frc consts  --      3.1365                 1.5279                 8.8701
 IR Inten    --     28.7061                 2.7170                 5.3444

                     43                     44                     45
                      A                      A                      A
 Frequencies --   1653.2350              1666.5114              2982.2779
 Red. masses --      6.0609                 1.0953                 1.0707
 Frc consts  --      9.7601                 1.7923                 5.6105
 IR Inten    --      1.5868                33.2319                50.8092

                     46                     47                     48
                      A                      A                      A
 Frequencies --   3064.7009              3076.9239              3120.2335
 Red. masses --      1.0733                 1.0781                 1.1052
 Frc consts  --      5.9394                 6.0137                 6.3394
 IR Inten    --     10.0357                58.7563                12.7052

                     49                     50                     51
                      A                      A                      A
 Frequencies --   3187.8786              3198.3793              3209.3926
 Red. masses --      1.0856                 1.0901                 1.0952
 Frc consts  --      6.5003                 6.5704                 6.6462
 IR Inten    --      0.5295                 9.6221                15.7966

                     52                     53                     54
                      A                      A                      A
 Frequencies --   3221.0086              3491.8758              3575.7824
 Red. masses --      1.0959                 1.0499                 1.0921
 Frc consts  --      6.6989                 7.5423                 8.2270
 IR Inten    --      6.7137                 1.4985                 0.0626

 - Thermochemistry -
 -------------------
 Temperature   298.150 Kelvin.  Pressure   1.00000 Atm.
 Atom     1 has atomic number 17 and mass  34.96885

 Molecular mass:   155.05018 amu.
 Principal axes and moments of inertia in atomic units:
                           1         2         3
     Eigenvalues --  1365.094171680.893092730.29563
           X            0.99908   0.04275   0.00283
           Y           -0.04275   0.99908   0.00319
           Z           -0.00270  -0.00331   0.99999
 This molecule is an asymmetric top.
 Rotational symmetry number  1.
 Warning -- assumption of classical behavior for rotation
           may cause significant error
 Rotational temperatures (Kelvin)      0.06345     0.05153     0.03172
 Rotational constants (GHZ):           1.32206     1.07368     0.66101
 Zero-point vibrational energy     435643.4 (Joules/Mol)
                                  104.12128 (Kcal/Mol)
 Warning -- explicit consideration of  13 degrees of freedom as
           vibrations may cause significant error
 Vibrational temperatures:     84.83   129.86   194.34   257.84   358.44
          (Kelvin)            395.00   467.83   520.54   626.05   656.79
                              681.40   769.85   854.48   990.62  1062.59
                             1104.46  1144.79  1243.67  1247.51  1293.15
                             1331.33  1371.39  1421.57  1499.19  1539.91
                             1546.61  1596.43  1664.72  1683.98  1712.38
                             1755.65  1775.41  1887.48  1932.65  1954.10
                             1971.29  2053.54  2130.24  2153.94  2185.38
                             2197.69  2340.74  2378.64  2397.74  4290.83
                             4409.42  4427.01  4489.32  4586.65  4601.75
                             4617.60  4634.31  5024.03  5144.75

 Zero-point correction=                           0.165928 (Hartree/Particle)
 Thermal correction to Energy=                    0.175375
 Thermal correction to Enthalpy=                  0.176319
 Thermal correction to Gibbs Free Energy=         0.130625
 Sum of electronic and zero-point Energies=           -825.708312
 Sum of electronic and thermal Energies=              -825.698865
 Sum of electronic and thermal Enthalpies=            -825.697921
 Sum of electronic and thermal Free Energies=         -825.743615

                     E (Thermal)             CV                S
                      KCal/Mol        Cal/Mol-Kelvin    Cal/Mol-Kelvin
 Total                  110.050             35.758             96.172
 Electronic               0.000              0.000              0.000
 Translational            0.889              2.981             41.025
 Rotational               0.889              2.981             30.217
 Vibrational            108.272             29.796             24.930
 Vibration     1          0.596              1.974              4.492
 Vibration     2          0.602              1.956              3.654
 Vibration     3          0.613              1.918              2.872
 Vibration     4          0.629              1.868              2.337
 Vibration     5          0.662              1.764              1.737
 Vibration     6          0.677              1.720              1.567
 Vibration     7          0.709              1.625              1.284
 Vibration     8          0.736              1.551              1.114
 Vibration     9          0.796              1.394              0.842
 Vibration    10          0.815              1.347              0.776
 Vibration    11          0.830              1.309              0.728
 Vibration    12          0.890              1.172              0.576
 Vibration    13          0.952              1.045              0.460

 Optimization completed.
    -- Stationary point found.
 Normal termination of Gaussian 16 at Mon Feb 21 19:26:06 2022.

 ----------------------------------------------------------------------
 # M062X/def2tzvp int=(grid=ultrafine) pop=nbo7 polar prop=efg volume g
 uess=read geom=check
 ----------------------------------------------------------------------

 ------
 N3.xyz
 ------
 Structure from the checkpoint file:  "N3_conf-1.chk"
 Charge =  0 Multiplicity = 1

 SCF Done:  E(RM062X) =  -825.796778347     A.U. after   11 cycles

  Exact polarizability:     126.400       7.559     126.677       9.515      -2.957      77.609
 Approx polarizability:     151.920       8.095     166.892      16.059      -5.993     106.119

 Summary of Natural Population Analysis:

                                     Natural Population
             Natural    ---------------------------------------------
  Atom No    Charge        Core      Valence    Rydberg      Total
 --------------------------------------------------------------------
   Cl  1   -0.02183      9.99998     7.00465    0.01720    17.02183
    C  2   -0.02426      1.99999     3.99976    0.02451     6.02426
    C  3   -0.22792      1.99999     4.20971    0.01822     6.22792
    C  4   -0.20679      1.99999     4.19068    0.01612     6.20679
    C  5   -0.21345      1.99999     4.19702    0.01644     6.21345
    C  6   -0.20219      1.99999     4.18519    0.01701     6.20219
    C  7   -0.04496      1.99999     4.02496    0.02001     6.04496
    C  8   -0.42883      1.99999     4.41495    0.01388     6.42883
    C  9   -0.20496      1.99999     4.19223    0.01274     6.20496
    N 10   -0.84138      1.99999     5.81604    0.02535     7.84138
    H 11    0.22961      0.00000     0.76894    0.00145     0.77039
    H 12    0.21957      0.00000     0.77930    0.00113     0.78043
    H 13    0.21877      0.00000     0.78010    0.00113     0.78123
    H 14    0.22510      0.00000     0.77334    0.00156     0.77490
    H 15    0.21962      0.00000     0.77849    0.00190     0.78038
    H 16    0.22750      0.00000     0.77088    0.00162     0.77250
    H 17    0.19283      0.00000     0.80555    0.00162     0.80717
    H 18    0.17127      0.00000     0.82661    0.00212     0.82873
    H 19    0.35466      0.00000     0.64334    0.00199     0.64534
    H 20    0.35765      0.00000     0.64082    0.00154     0.64235
 ====================================================================
 * Total *  0.00000     27.99991    53.80256    0.19753    82.00000

 Normal termination of Gaussian 16 at Mon Feb 21 19:27:19 2022.
 Gaussian 16:  ES64L-G16RevC.01  3-Jul-2019

 --------------------------------------------------------------------
 # M062X/def2tzvp int=(grid=ultrafine) nmr=giao guess=read geom=check
 --------------------------------------------------------------------

 ------
 N3.xyz
 ------
 Structure from the checkpoint file:  "N3_conf-1.chk"
 Charge =  0 Multiplicity = 1

                         Standard orientation:
 ---------------------------------------------------------------------
 Center     Atomic      Atomic             Coordinates (Angstroms)
 Number     Number       Type             X           Y           Z
 ---------------------------------------------------------------------
      1         17           0       -0.344989    2.334973   -0.047935
      2          6           0       -0.798394    0.630022    0.035739
      3          6           0       -2.075859    0.280108   -0.397867
      4          6           0       -2.471238   -1.055258   -0.355460
      5          6           0       -1.588532   -2.024184    0.120239
      6          6           0       -0.318693   -1.651083    0.554935
      7          6           0        0.111395   -0.315735    0.528646
      8          6           0        1.511325    0.037723    0.967117
      9          6           0        2.500647    0.081075   -0.209927
     10          7           0        2.607744   -1.240868   -0.833991
     11          1           0       -2.746143    1.049635   -0.763072
     12          1           0       -3.465234   -1.331553   -0.692344
     13          1           0       -1.887936   -3.066768    0.156334
     14          1           0        0.373660   -2.402161    0.922217
     15          1           0        1.861980   -0.715178    1.678952
     16          1           0        1.515516    1.008026    1.471245
     17          1           0        3.487836    0.352038    0.180936
     18          1           0        2.196434    0.884675   -0.900058
     19          1           0        1.731493   -1.462971   -1.301651
     20          1           0        3.319094   -1.220226   -1.560269
 ---------------------------------------------------------------------

 SCF Done:  E(RM062X) =  -825.796778347     A.U. after    1 cycles

      1  Cl   Isotropic =   699.3786   Anisotropy =   420.3530

      2  C    Isotropic =    21.5836   Anisotropy =   132.1584

      3  C    Isotropic =    33.8592   Anisotropy =   182.5284

      4  C    Isotropic =    36.5150   Anisotropy =   210.2752

      5  C    Isotropic =    37.9416   Anisotropy =   211.2918

      6  C    Isotropic =    29.5662   Anisotropy =   196.7772

      7  C    Isotropic =    22.7698   Anisotropy =   216.3969

      8  C    Isotropic =   144.9588   Anisotropy =    12.3618

      9  C    Isotropic =   142.3248   Anisotropy =    22.3699

     10  N    Isotropic =   229.6734   Anisotropy =    32.2324

     11  H    Isotropic =    23.7348   Anisotropy =     9.1798

     12  H    Isotropic =    23.9301   Anisotropy =     5.5170

     13  H    Isotropic =    23.9267   Anisotropy =     5.8409

     14  H    Isotropic =    23.6425   Anisotropy =     9.1324

     15  H    Isotropic =    29.1921   Anisotropy =     7.8261

     16  H    Isotropic =    28.4929   Anisotropy =     5.6044

     17  H    Isotropic =    29.1598   Anisotropy =     8.1507

     18  H    Isotropic =    28.7563   Anisotropy =     8.2907

     19  H    Isotropic =    32.0687   Anisotropy =     9.8415

     20  H    Isotropic =    31.4476   Anisotropy =    16.0746

 The electronic state is 1-A.
 Alpha  occ. eigenvalues -- -102.64489 -14.72695 -10.60771 -10.56428 -10.56206
 Alpha  occ. eigenvalues --  -10.55663 -10.55369 -10.55158 -10.55079 -10.54051
 Alpha  occ. eigenvalues --   -9.80731  -7.52922  -7.52423  -7.52406  -1.00090
 Alpha  occ. eigenvalues --   -0.98503  -0.93487  -0.88237  -0.83397  -0.80657
 Alpha  occ. eigenvalues --   -0.71258  -0.69462  -0.65899  -0.58807  -0.56850
 Alpha  occ. eigenvalues --   -0.55928  -0.53211  -0.52157  -0.49406  -0.49381
 Alpha  occ. eigenvalues --   -0.47465  -0.44965  -0.43818  -0.43151  -0.41050
 Alpha  occ. eigenvalues --   -0.40357  -0.40015  -0.37454  -0.31739  -0.31092
 Alpha  occ. eigenvalues --   -0.29782
 Alpha virt. eigenvalues --    0.00923   0.01037   0.06308   0.06634   0.09695
 Alpha virt. eigenvalues --    0.09925   0.10528   0.11360   0.12617   0.13408
 Alpha virt. eigenvalues --    0.14340   0.14980   0.16614   0.17544   0.18575

 Mulliken charges:
               1
     1  Cl  -0.093281
     2  C    0.052700
     3  C   -0.172953
     4  C   -0.143879
     5  C   -0.133052
     6  C   -0.199417
     7  C    0.041958
     8  C   -0.332832
     9  C   -0.163805
    10  N   -0.556282
    11  H    0.156911
    12  H    0.147303
    13  H    0.148202
    14  H    0.171822
    15  H    0.156197
    16  H    0.166520
    17  H    0.131913
    18  H    0.148977
    19  H    0.245260
    20  H    0.227737
 Sum of Mulliken charges =  -0.00000

 Dipole moment (field-independent basis, Debye):
    X=             -0.2573    Y=             -0.7799    Z=             -0.8218  Tot=              1.1618
 Quadrupole moment (field-independent basis, Debye-Ang):
   XX=            -61.6660   YY=            -68.3480   ZZ=            -66.6864
   XY=              4.2427   XZ=              0.1653   YZ=              0.5375

 Normal termination of Gaussian 16 at Mon Feb 21 19:27:48 2022.
