 Gaussian 16, Revision C.01,

 ----------------------------------------------------------------------
 # B3LYP/6-31G(d,p) empiricaldispersion=GD3BJ int=(grid=ultrafine) opt
 freq=noraman
 ----------------------------------------------------------------------

 ------
 N3.xyz
 ------
 Symbolic Z-matrix:
 Charge =  0 Multiplicity = 1

 SCF Done:  E(RB3LYP) =  -825.867497956     A.U. after   14 cycles
 SCF Done:  E(RB3LYP) =  -825.870352976     A.U. after   11 cycles
 SCF Done:  E(RB3LYP) =  -825.871052803     A.U. after   11 cycles
 SCF Done:  E(RB3LYP) =  -825.871283093     A.U. after   11 cycles
 SCF Done:  E(RB3LYP) =  -825.871350863     A.U. after   10 cycles
 SCF Done:  E(RB3LYP) =  -825.871384795     A.U. after   10 cycles
 SCF Done:  E(RB3LYP) =  -825.871389137     A.U. after    8 cycles
 SCF Done:  E(RB3LYP) =  -825.871390173     A.U. after    7 cycles
 Optimization completed.
    -- Stationary point found.
 Normal termination of Gaussian 16 at Mon Feb 21 19:20:34 2022.

 ----------------------------------------------------------------------
 #N Geom=AllCheck Guess=TCheck SCRF=Check GenChk RB3LYP/6-31G(d,p) Freq
 ----------------------------------------------------------------------

 Structure from the checkpoint file:  "N3_conf-6.chk"
 ------
 N3.xyz
 ------
 Charge =  0 Multiplicity = 1

 SCF Done:  E(RB3LYP) =  -825.871390173     A.U. after    1 cycles

                      1                      2                      3
                      A                      A                      A
 Frequencies --     47.1286                82.0995               133.3451
 Red. masses --      4.2786                 4.4004                 3.0207
 Frc consts  --      0.0056                 0.0175                 0.0316
 IR Inten    --      0.7355                 0.5874                 2.4667

                      4                      5                      6
                      A                      A                      A
 Frequencies --    179.3543               253.4409               265.3342
 Red. masses --      2.6625                 5.0260                 1.4616
 Frc consts  --      0.0505                 0.1902                 0.0606
 IR Inten    --      5.1706                 0.8494                54.0710

                      7                      8                      9
                      A                      A                      A
 Frequencies --    302.0796               387.1532               426.0738
 Red. masses --      2.4826                 3.5559                 3.4279
 Frc consts  --      0.1335                 0.3140                 0.3666
 IR Inten    --     17.9534                 7.4465                 3.3434

                     10                     11                     12
                      A                      A                      A
 Frequencies --    448.4351               473.0688               533.7367
 Red. masses --      3.0660                 3.4591                 4.3485
 Frc consts  --      0.3633                 0.4561                 0.7299
 IR Inten    --      0.6419                 6.0208                 2.0435

                     13                     14                     15
                      A                      A                      A
 Frequencies --    591.8172               689.8874               735.7961
 Red. masses --      3.5276                 5.8701                 3.8140
 Frc consts  --      0.7279                 1.6461                 1.2166
 IR Inten    --      4.1703                12.9982                 3.3495

                     16                     17                     18
                      A                      A                      A
 Frequencies --    768.9465               791.2107               845.9789
 Red. masses --      1.2475                 3.3211                 1.4762
 Frc consts  --      0.4346                 1.2249                 0.6225
 IR Inten    --     41.5021                 0.2286                96.3889

                     19                     20                     21
                      A                      A                      A
 Frequencies --    871.3603               892.0499               929.7223
 Red. masses --      1.3312                 1.7059                 2.0841
 Frc consts  --      0.5955                 0.7998                 1.0614
 IR Inten    --      6.9057                12.1746                 0.5409

                     22                     23                     24
                      A                      A                      A
 Frequencies --    953.3055               987.6475              1042.2203
 Red. masses --      1.3576                 1.2658                 2.4016
 Frc consts  --      0.7269                 0.7275                 1.5370
 IR Inten    --      1.2646                 0.0204                 2.6285

                     25                     26                     27
                      A                      A                      A
 Frequencies --   1067.5994              1078.5415              1117.7679
 Red. masses --      4.0719                 2.0675                 2.1047
 Frc consts  --      2.7344                 1.4170                 1.5494
 IR Inten    --     68.5709                 3.6755                 9.8338

                     28                     29                     30
                      A                      A                      A
 Frequencies --   1157.2229              1171.4325              1190.2775
 Red. masses --      1.7433                 1.2818                 1.0879
 Frc consts  --      1.3754                 1.0364                 0.9081
 IR Inten    --      3.6209                 0.6212                 0.1302

                     31                     32                     33
                      A                      A                      A
 Frequencies --   1221.6871              1227.8586              1310.0038
 Red. masses --      1.2760                 2.1310                 1.5031
 Frc consts  --      1.1221                 1.8929                 1.5198
 IR Inten    --      1.1457                 1.0258                 0.4983

                     34                     35                     36
                      A                      A                      A
 Frequencies --   1340.6294              1351.4930              1371.7210
 Red. masses --      1.7302                 2.0185                 1.5397
 Frc consts  --      1.8321                 2.1722                 1.7069
 IR Inten    --      3.7427                 2.2610                 2.1081

                     37                     38                     39
                      A                      A                      A
 Frequencies --   1432.2312              1481.0182              1496.4578
 Red. masses --      1.3996                 2.2046                 1.1012
 Frc consts  --      1.6915                 2.8490                 1.4530
 IR Inten    --     17.6561                18.0275                 5.1344

                     40                     41                     42
                      A                      A                      A
 Frequencies --   1518.8414              1528.2244              1626.9210
 Red. masses --      2.2288                 1.1481                 5.7618
 Frc consts  --      3.0294                 1.5799                 8.9855
 IR Inten    --     25.6889                 4.6498                 5.8483

                     43                     44                     45
                      A                      A                      A
 Frequencies --   1653.6112              1669.2375              2938.4692
 Red. masses --      5.7339                 1.1033                 1.0733
 Frc consts  --      9.2377                 1.8112                 5.4601
 IR Inten    --      2.5473                29.6435                75.1359

                     46                     47                     48
                      A                      A                      A
 Frequencies --   3055.9713              3066.6783              3138.5205
 Red. masses --      1.0737                 1.0823                 1.0963
 Frc consts  --      5.9081                 5.9969                 6.3624
 IR Inten    --     10.9304                65.7804                 7.6922

                     49                     50                     51
                      A                      A                      A
 Frequencies --   3177.3724              3193.2764              3207.6096
 Red. masses --      1.0873                 1.0887                 1.0946
 Frc consts  --      6.4675                 6.5408                 6.6355
 IR Inten    --      6.1774                 8.1539                17.9060

                     52                     53                     54
                      A                      A                      A
 Frequencies --   3221.2594              3492.4793              3577.9304
 Red. masses --      1.0957                 1.0496                 1.0924
 Frc consts  --      6.6988                 7.5430                 8.2394
 IR Inten    --      6.6093                 1.2681                 0.0546

 - Thermochemistry -
 -------------------
 Temperature   298.150 Kelvin.  Pressure   1.00000 Atm.
 Atom     1 has atomic number 17 and mass  34.96885

 Molecular mass:   155.05018 amu.
 Principal axes and moments of inertia in atomic units:
                           1         2         3
     Eigenvalues --  1283.821481750.748492629.43564
           X            0.99808   0.06176   0.00505
           Y           -0.06182   0.99802   0.01143
           Z           -0.00433  -0.01172   0.99992
 This molecule is an asymmetric top.
 Rotational symmetry number  1.
 Warning -- assumption of classical behavior for rotation
           may cause significant error
 Rotational temperatures (Kelvin)      0.06747     0.04947     0.03294
 Rotational constants (GHZ):           1.40576     1.03084     0.68636
 Zero-point vibrational energy     434923.5 (Joules/Mol)
                                  103.94922 (Kcal/Mol)
 Warning -- explicit consideration of  13 degrees of freedom as
           vibrations may cause significant error
 Vibrational temperatures:     67.81   118.12   191.85   258.05   364.64
          (Kelvin)            381.76   434.63   557.03   613.03   645.20
                              680.64   767.93   851.49   992.59  1058.65
                             1106.34  1138.38  1217.17  1253.69  1283.46
                             1337.66  1371.59  1421.00  1499.52  1536.04
                             1551.78  1608.22  1664.99  1685.43  1712.54
                             1757.74  1766.61  1884.80  1928.87  1944.50
                             1973.60  2060.66  2130.85  2153.07  2185.27
                             2198.77  2340.78  2379.18  2401.66  4227.80
                             4396.86  4412.27  4515.63  4571.53  4594.41
                             4615.03  4634.67  5024.90  5147.84

 Zero-point correction=                           0.165654 (Hartree/Particle)
 Thermal correction to Energy=                    0.175175
 Thermal correction to Enthalpy=                  0.176119
 Thermal correction to Gibbs Free Energy=         0.130084
 Sum of electronic and zero-point Energies=           -825.705737
 Sum of electronic and thermal Energies=              -825.696216
 Sum of electronic and thermal Enthalpies=            -825.695271
 Sum of electronic and thermal Free Energies=         -825.741306

                     E (Thermal)             CV                S
                      KCal/Mol        Cal/Mol-Kelvin    Cal/Mol-Kelvin
 Total                  109.924             35.844             96.888
 Electronic               0.000              0.000              0.000
 Translational            0.889              2.981             41.025
 Rotational               0.889              2.981             30.159
 Vibrational            108.146             29.883             25.704
 Vibration     1          0.595              1.979              4.934
 Vibration     2          0.600              1.961              3.840
 Vibration     3          0.613              1.920              2.897
 Vibration     4          0.629              1.868              2.335
 Vibration     5          0.665              1.757              1.707
 Vibration     6          0.671              1.737              1.626
 Vibration     7          0.694              1.670              1.405
 Vibration     8          0.756              1.498              1.011
 Vibration     9          0.788              1.414              0.872
 Vibration    10          0.807              1.364              0.801
 Vibration    11          0.830              1.310              0.729
 Vibration    12          0.889              1.175              0.579
 Vibration    13          0.949              1.049              0.464

 Optimization completed.
    -- Stationary point found.
 Normal termination of Gaussian 16 at Mon Feb 21 19:21:03 2022.

 ----------------------------------------------------------------------
 # M062X/def2tzvp int=(grid=ultrafine) pop=nbo7 polar prop=efg volume g
 uess=read geom=check
 ----------------------------------------------------------------------

 ------
 N3.xyz
 ------
 Structure from the checkpoint file:  "N3_conf-6.chk"
 Charge =  0 Multiplicity = 1

 SCF Done:  E(RM062X) =  -825.793891624     A.U. after   12 cycles

  Exact polarizability:     129.262      -5.436     122.358      10.432       4.655      79.077
 Approx polarizability:     155.166      -8.243     163.042      16.605       7.208     106.746

 Summary of Natural Population Analysis:

                                     Natural Population
             Natural    ---------------------------------------------
  Atom No    Charge        Core      Valence    Rydberg      Total
 --------------------------------------------------------------------
   Cl  1   -0.00766      9.99998     6.99041    0.01727    17.00766
    C  2   -0.02958      1.99999     4.00488    0.02471     6.02958
    C  3   -0.22715      1.99999     4.20874    0.01841     6.22715
    C  4   -0.20644      1.99999     4.19032    0.01613     6.20644
    C  5   -0.21277      1.99999     4.19638    0.01639     6.21277
    C  6   -0.20040      1.99999     4.18359    0.01682     6.20040
    C  7   -0.04617      1.99999     4.02599    0.02019     6.04617
    C  8   -0.43230      1.99999     4.41858    0.01373     6.43230
    C  9   -0.19825      1.99999     4.18539    0.01286     6.19825
    N 10   -0.83273      1.99999     5.80699    0.02575     7.83273
    H 11    0.22993      0.00000     0.76863    0.00145     0.77007
    H 12    0.21961      0.00000     0.77926    0.00112     0.78039
    H 13    0.21805      0.00000     0.78081    0.00115     0.78195
    H 14    0.21393      0.00000     0.78447    0.00160     0.78607
    H 15    0.21777      0.00000     0.78081    0.00142     0.78223
    H 16    0.23428      0.00000     0.76369    0.00203     0.76572
    H 17    0.15805      0.00000     0.83975    0.00220     0.84195
    H 18    0.19212      0.00000     0.80620    0.00168     0.80788
    H 19    0.35364      0.00000     0.64433    0.00203     0.64636
    H 20    0.35607      0.00000     0.64236    0.00157     0.64393
 ====================================================================
 * Total *  0.00000     27.99991    53.80158    0.19851    82.00000

 Normal termination of Gaussian 16 at Mon Feb 21 19:22:31 2022.
 Gaussian 16:  ES64L-G16RevC.01  3-Jul-2019

 --------------------------------------------------------------------
 # M062X/def2tzvp int=(grid=ultrafine) nmr=giao guess=read geom=check
 --------------------------------------------------------------------

 ------
 N3.xyz
 ------
 Structure from the checkpoint file:  "N3_conf-6.chk"
 Charge =  0 Multiplicity = 1

                         Standard orientation:
 ---------------------------------------------------------------------
 Center     Atomic      Atomic             Coordinates (Angstroms)
 Number     Number       Type             X           Y           Z
 ---------------------------------------------------------------------
      1         17           0       -0.280619    2.229361   -0.213328
      2          6           0        0.608674    0.711067   -0.110124
      3          6           0        1.918341    0.769449    0.371126
      4          6           0        2.669422   -0.397762    0.470373
      5          6           0        2.109532   -1.615986    0.083575
      6          6           0        0.804448   -1.652133   -0.396448
      7          6           0        0.015781   -0.495797   -0.506798
      8          6           0       -1.408747   -0.618785   -0.997593
      9          6           0       -2.346597   -1.196132    0.075283
     10          7           0       -2.479482   -0.270443    1.198237
     11          1           0        2.335204    1.726806    0.661694
     12          1           0        3.687309   -0.351827    0.844075
     13          1           0        2.688612   -2.531404    0.151199
     14          1           0        0.369559   -2.599878   -0.702407
     15          1           0       -1.424540   -1.286370   -1.866415
     16          1           0       -1.792755    0.352028   -1.314538
     17          1           0       -1.978372   -2.200457    0.354576
     18          1           0       -3.338504   -1.336525   -0.369927
     19          1           0       -1.569177   -0.125345    1.629653
     20          1           0       -3.075556   -0.676586    1.914648
 ---------------------------------------------------------------------

 SCF Done:  E(RM062X) =  -825.793891624     A.U. after    1 cycles

      1  Cl   Isotropic =   684.3773   Anisotropy =   425.0936

      2  C    Isotropic =    19.6704   Anisotropy =   136.4678

      3  C    Isotropic =    33.9253   Anisotropy =   181.7941

      4  C    Isotropic =    36.5651   Anisotropy =   208.2937

      5  C    Isotropic =    37.5376   Anisotropy =   212.5895

      6  C    Isotropic =    32.3584   Anisotropy =   200.2015

      7  C    Isotropic =    21.0434   Anisotropy =   217.6799

      8  C    Isotropic =   147.4860   Anisotropy =    12.6137

      9  C    Isotropic =   136.0801   Anisotropy =    15.9035

     10  N    Isotropic =   232.9961   Anisotropy =    38.6209

     11  H    Isotropic =    23.7359   Anisotropy =     9.2652

     12  H    Isotropic =    23.9520   Anisotropy =     5.5079

     13  H    Isotropic =    23.9105   Anisotropy =     5.6723

     14  H    Isotropic =    23.8209   Anisotropy =     9.3760

     15  H    Isotropic =    29.2804   Anisotropy =     8.6289

     16  H    Isotropic =    28.3149   Anisotropy =     5.2635

     17  H    Isotropic =    28.8652   Anisotropy =     8.6647

     18  H    Isotropic =    28.8398   Anisotropy =     8.2168

     19  H    Isotropic =    31.8906   Anisotropy =     9.8174

     20  H    Isotropic =    31.7435   Anisotropy =    16.7093

 The electronic state is 1-A.
 Alpha  occ. eigenvalues -- -102.63984 -14.72436 -10.60709 -10.56530 -10.56355
 Alpha  occ. eigenvalues --  -10.55603 -10.55383 -10.55360 -10.55190 -10.54138
 Alpha  occ. eigenvalues --   -9.80227  -7.52424  -7.51916  -7.51896  -1.00009
 Alpha  occ. eigenvalues --   -0.98350  -0.93350  -0.88340  -0.83301  -0.80592
 Alpha  occ. eigenvalues --   -0.71664  -0.69032  -0.66099  -0.58870  -0.56751
 Alpha  occ. eigenvalues --   -0.55914  -0.53172  -0.52204  -0.49605  -0.49281
 Alpha  occ. eigenvalues --   -0.47295  -0.44922  -0.44125  -0.43081  -0.40930
 Alpha  occ. eigenvalues --   -0.40552  -0.39701  -0.37051  -0.31438  -0.31050
 Alpha  occ. eigenvalues --   -0.29598
 Alpha virt. eigenvalues --    0.00649   0.01173   0.06335   0.06726   0.08593
 Alpha virt. eigenvalues --    0.10154   0.10827   0.11368   0.12531   0.13465
 Alpha virt. eigenvalues --    0.13903   0.15478   0.16677   0.17671   0.18803

 Mulliken charges:
               1
     1  Cl  -0.074352
     2  C    0.005870
     3  C   -0.154459
     4  C   -0.144312
     5  C   -0.157850
     6  C   -0.151010
     7  C    0.042192
     8  C   -0.354970
     9  C   -0.132480
    10  N   -0.547240
    11  H    0.156473
    12  H    0.147375
    13  H    0.146476
    14  H    0.158716
    15  H    0.160683
    16  H    0.172008
    17  H    0.126724
    18  H    0.130917
    19  H    0.243218
    20  H    0.226024
 Sum of Mulliken charges =  -0.00000

 Dipole moment (field-independent basis, Debye):
    X=              0.8620    Y=             -2.5616    Z=              0.5092  Tot=              2.7503
 Quadrupole moment (field-independent basis, Debye-Ang):
   XX=            -62.8120   YY=            -65.6326   ZZ=            -66.5457
   XY=              3.6988   XZ=              1.9154   YZ=              0.3314

 Normal termination of Gaussian 16 at Mon Feb 21 19:23:05 2022.
