 Gaussian 16, Revision C.01,

 ----------------------------------------------------------------------
 # B3LYP/6-31G(d,p) empiricaldispersion=GD3BJ int=(grid=ultrafine) opt
 freq=noraman
 ----------------------------------------------------------------------

 ------
 N3.xyz
 ------
 Symbolic Z-matrix:
 Charge =  0 Multiplicity = 1

 SCF Done:  E(RB3LYP) =  -825.869926828     A.U. after   14 cycles
 SCF Done:  E(RB3LYP) =  -825.872382979     A.U. after   11 cycles
 SCF Done:  E(RB3LYP) =  -825.872637045     A.U. after   10 cycles
 SCF Done:  E(RB3LYP) =  -825.872662651     A.U. after    9 cycles
 SCF Done:  E(RB3LYP) =  -825.872665062     A.U. after    8 cycles
 SCF Done:  E(RB3LYP) =  -825.872666177     A.U. after    7 cycles
 SCF Done:  E(RB3LYP) =  -825.872666692     A.U. after    7 cycles
 SCF Done:  E(RB3LYP) =  -825.872666849     A.U. after    7 cycles
 Optimization completed.
    -- Stationary point found.
 Normal termination of Gaussian 16 at Mon Feb 21 19:41:42 2022.

 ----------------------------------------------------------------------
 #N Geom=AllCheck Guess=TCheck SCRF=Check GenChk RB3LYP/6-31G(d,p) Freq
 ----------------------------------------------------------------------

 Structure from the checkpoint file:  "N3_conf-2.chk"
 ------
 N3.xyz
 ------
 Charge =  0 Multiplicity = 1

 SCF Done:  E(RB3LYP) =  -825.872666849     A.U. after    1 cycles

                      1                      2                      3
                      A                      A                      A
 Frequencies --     59.9386                90.9184               110.7301
 Red. masses --      4.6289                 3.1015                 2.2086
 Frc consts  --      0.0098                 0.0151                 0.0160
 IR Inten    --      1.1840                 2.9355                 3.7020

                      4                      5                      6
                      A                      A                      A
 Frequencies --    174.3348               253.5727               264.5736
 Red. masses --      4.8114                 1.2667                 3.6425
 Frc consts  --      0.0862                 0.0480                 0.1502
 IR Inten    --      0.2072                32.7330                 3.7088

                      7                      8                      9
                      A                      A                      A
 Frequencies --    306.6733               332.3432               399.4779
 Red. masses --      3.8625                 3.4177                 4.3386
 Frc consts  --      0.2140                 0.2224                 0.4079
 IR Inten    --      4.7217                15.0977                 6.4966

                     10                     11                     12
                      A                      A                      A
 Frequencies --    452.0670               464.4998               538.9189
 Red. masses --      4.1198                 3.7019                 4.0018
 Frc consts  --      0.4961                 0.4706                 0.6848
 IR Inten    --      3.2368                 3.5289                 2.1890

                     13                     14                     15
                      A                      A                      A
 Frequencies --    616.1168               694.6895               737.2144
 Red. masses --      5.1948                 5.9897                 4.7817
 Frc consts  --      1.1618                 1.7031                 1.5312
 IR Inten    --      7.2968                16.5512                 1.8596

                     16                     17                     18
                      A                      A                      A
 Frequencies --    767.0690               797.0936               843.3233
 Red. masses --      1.2349                 1.1501                 3.0871
 Frc consts  --      0.4281                 0.4305                 1.2936
 IR Inten    --     43.6736                13.5811                20.0763

                     19                     20                     21
                      A                      A                      A
 Frequencies --    872.1947               879.6744               948.5962
 Red. masses --      1.3106                 1.4986                 1.4114
 Frc consts  --      0.5874                 0.6833                 0.7483
 IR Inten    --     95.1141                27.2328                 0.8148

                     22                     23                     24
                      A                      A                      A
 Frequencies --    976.2091               987.9282              1043.7645
 Red. masses --      1.9652                 1.2773                 2.7885
 Frc consts  --      1.1034                 0.7345                 1.7899
 IR Inten    --      0.7980                 0.0058                10.9246

                     25                     26                     27
                      A                      A                      A
 Frequencies --   1066.0199              1075.7987              1098.9015
 Red. masses --      3.7118                 2.1687                 2.3318
 Frc consts  --      2.4852                 1.4788                 1.6590
 IR Inten    --     45.1905                 0.2930                26.7914

                     28                     29                     30
                      A                      A                      A
 Frequencies --   1147.2420              1171.3926              1190.1816
 Red. masses --      1.4983                 1.2948                 1.0939
 Frc consts  --      1.1619                 1.0468                 0.9129
 IR Inten    --      2.8722                 1.1086                 0.0431

                     31                     32                     33
                      A                      A                      A
 Frequencies --   1232.3812              1268.1200              1314.5043
 Red. masses --      2.2357                 1.4328                 1.5234
 Frc consts  --      2.0005                 1.3575                 1.5509
 IR Inten    --      1.2511                 0.1746                 0.3216

                     34                     35                     36
                      A                      A                      A
 Frequencies --   1329.1112              1355.0701              1361.3837
 Red. masses --      1.3691                 2.4894                 1.4783
 Frc consts  --      1.4250                 2.6932                 1.6142
 IR Inten    --      1.6622                 1.2775                 0.2524

                     37                     38                     39
                      A                      A                      A
 Frequencies --   1432.3959              1482.1257              1505.7351
 Red. masses --      1.4164                 2.1509                 1.1324
 Frc consts  --      1.7122                 2.7838                 1.5126
 IR Inten    --     20.3219                15.7581                 5.0399

                     40                     41                     42
                      A                      A                      A
 Frequencies --   1519.4529              1530.7175              1627.9766
 Red. masses --      2.4552                 1.0923                 5.7514
 Frc consts  --      3.3398                 1.5080                 8.9809
 IR Inten    --     27.4877                 2.7462                 5.4636

                     43                     44                     45
                      A                      A                      A
 Frequencies --   1654.8333              1667.6912              2981.7166
 Red. masses --      6.2494                 1.0922                 1.0704
 Frc consts  --     10.0831                 1.7898                 5.6072
 IR Inten    --      2.4994                22.4241                50.9275

                     46                     47                     48
                      A                      A                      A
 Frequencies --   3057.8040              3067.7838              3111.5145
 Red. masses --      1.0682                 1.0835                 1.1040
 Frc consts  --      5.8849                 6.0081                 6.2973
 IR Inten    --     13.3759                31.4655                19.9104

                     49                     50                     51
                      A                      A                      A
 Frequencies --   3181.2781              3194.1572              3208.1138
 Red. masses --      1.0870                 1.0891                 1.0947
 Frc consts  --      6.4816                 6.5470                 6.6382
 IR Inten    --      4.3019                 9.1115                17.9850

                     52                     53                     54
                      A                      A                      A
 Frequencies --   3221.2267              3485.0054              3569.8193
 Red. masses --      1.0958                 1.0500                 1.0920
 Frc consts  --      6.6992                 7.5137                 8.1987
 IR Inten    --      6.7767                 1.6995                 0.3147

 - Thermochemistry -
 -------------------
 Temperature   298.150 Kelvin.  Pressure   1.00000 Atm.
 Atom     1 has atomic number 17 and mass  34.96885

 Molecular mass:   155.05018 amu.
 Principal axes and moments of inertia in atomic units:
                           1         2         3
     Eigenvalues --  1131.636482132.304353096.17903
           X            0.99998  -0.00553  -0.00086
           Y            0.00553   0.99998  -0.00407
           Z            0.00088   0.00406   0.99999
 This molecule is an asymmetric top.
 Rotational symmetry number  1.
 Warning -- assumption of classical behavior for rotation
           may cause significant error
 Rotational temperatures (Kelvin)      0.07654     0.04062     0.02797
 Rotational constants (GHZ):           1.59481     0.84638     0.58289
 Zero-point vibrational energy     434970.4 (Joules/Mol)
                                  103.96043 (Kcal/Mol)
 Warning -- explicit consideration of  13 degrees of freedom as
           vibrations may cause significant error
 Vibrational temperatures:     86.24   130.81   159.32   250.83   364.83
          (Kelvin)            380.66   441.23   478.17   574.76   650.42
                              668.31   775.38   886.45   999.50  1060.69
                             1103.64  1146.84  1213.35  1254.89  1265.66
                             1364.82  1404.55  1421.41  1501.74  1533.76
                             1547.83  1581.07  1650.63  1685.37  1712.41
                             1773.12  1824.54  1891.28  1912.29  1949.64
                             1958.73  2060.90  2132.45  2166.42  2186.15
                             2202.36  2342.30  2380.94  2399.44  4290.03
                             4399.50  4413.86  4476.78  4577.15  4595.68
                             4615.76  4634.63  5014.15  5136.17

 Zero-point correction=                           0.165671 (Hartree/Particle)
 Thermal correction to Energy=                    0.175257
 Thermal correction to Enthalpy=                  0.176202
 Thermal correction to Gibbs Free Energy=         0.130063
 Sum of electronic and zero-point Energies=           -825.706995
 Sum of electronic and thermal Energies=              -825.697409
 Sum of electronic and thermal Enthalpies=            -825.696465
 Sum of electronic and thermal Free Energies=         -825.742604

                     E (Thermal)             CV                S
                      KCal/Mol        Cal/Mol-Kelvin    Cal/Mol-Kelvin
 Total                  109.976             35.921             97.108
 Electronic               0.000              0.000              0.000
 Translational            0.889              2.981             41.025
 Rotational               0.889              2.981             30.392
 Vibrational            108.198             29.959             25.691
 Vibration     1          0.597              1.973              4.459
 Vibration     2          0.602              1.956              3.640
 Vibration     3          0.607              1.941              3.256
 Vibration     4          0.627              1.874              2.388
 Vibration     5          0.665              1.757              1.706
 Vibration     6          0.671              1.738              1.631
 Vibration     7          0.697              1.661              1.380
 Vibration     8          0.714              1.611              1.249
 Vibration     9          0.766              1.471              0.965
 Vibration    10          0.811              1.356              0.790
 Vibration    11          0.822              1.329              0.753
 Vibration    12          0.894              1.164              0.568
 Vibration    13          0.976              0.998              0.423

                           ! Non-Optimized Parameters !
 Normal termination of Gaussian 16 at Mon Feb 21 19:42:03 2022.

 ----------------------------------------------------------------------
 # M062X/def2tzvp int=(grid=ultrafine) pop=nbo7 polar prop=efg volume g
 uess=read geom=check
 ----------------------------------------------------------------------

 ------
 N3.xyz
 ------
 Structure from the checkpoint file:  "N3_conf-2.chk"
 Charge =  0 Multiplicity = 1

 SCF Done:  E(RM062X) =  -825.795331653     A.U. after   12 cycles

  Exact polarizability:     137.693       7.056     121.441       7.427      -2.364      74.039
 Approx polarizability:     159.094       8.401     162.510      12.173      -3.770     102.015

 Summary of Natural Population Analysis:

                                     Natural Population
             Natural    ---------------------------------------------
  Atom No    Charge        Core      Valence    Rydberg      Total
 --------------------------------------------------------------------
   Cl  1   -0.02359      9.99998     7.00648    0.01714    17.02359
    C  2   -0.02226      1.99999     3.99784    0.02443     6.02226
    C  3   -0.22701      1.99999     4.20869    0.01832     6.22701
    C  4   -0.20640      1.99999     4.19029    0.01611     6.20640
    C  5   -0.21105      1.99999     4.19475    0.01631     6.21105
    C  6   -0.19629      1.99999     4.17983    0.01648     6.19629
    C  7   -0.03802      1.99999     4.01864    0.01939     6.03802
    C  8   -0.42770      1.99999     4.41292    0.01479     6.42770
    C  9   -0.20267      1.99999     4.19005    0.01263     6.20267
    N 10   -0.83088      1.99999     5.80578    0.02510     7.83088
    H 11    0.22953      0.00000     0.76901    0.00145     0.77047
    H 12    0.21953      0.00000     0.77934    0.00112     0.78047
    H 13    0.21825      0.00000     0.78062    0.00113     0.78175
    H 14    0.21619      0.00000     0.78245    0.00136     0.78381
    H 15    0.22119      0.00000     0.77691    0.00190     0.77881
    H 16    0.21793      0.00000     0.77995    0.00211     0.78207
    H 17    0.17167      0.00000     0.82628    0.00205     0.82833
    H 18    0.18693      0.00000     0.81123    0.00183     0.81307
    H 19    0.34860      0.00000     0.64950    0.00189     0.65140
    H 20    0.35602      0.00000     0.64243    0.00155     0.64398
 ====================================================================
 * Total *  0.00000     27.99991    53.80299    0.19710    82.00000

 Normal termination of Gaussian 16 at Mon Feb 21 19:43:10 2022.
 Gaussian 16:  ES64L-G16RevC.01  3-Jul-2019

 --------------------------------------------------------------------
 # M062X/def2tzvp int=(grid=ultrafine) nmr=giao guess=read geom=check
 --------------------------------------------------------------------

 ------
 N3.xyz
 ------
 Structure from the checkpoint file:  "N3_conf-2.chk"
 Charge =  0 Multiplicity = 1

                         Standard orientation:
 ---------------------------------------------------------------------
 Center     Atomic      Atomic             Coordinates (Angstroms)
 Number     Number       Type             X           Y           Z
 ---------------------------------------------------------------------
      1         17           0        0.087000    2.201752    0.104995
      2          6           0       -0.785593    0.666346    0.055638
      3          6           0       -2.138247    0.702516   -0.277863
      4          6           0       -2.861979   -0.486809   -0.327887
      5          6           0       -2.228495   -1.695947   -0.042668
      6          6           0       -0.876693   -1.706643    0.291753
      7          6           0       -0.117901   -0.529410    0.352409
      8          6           0        1.352026   -0.590105    0.679130
      9          6           0        2.228825   -0.608060   -0.582286
     10          7           0        3.641566   -0.687223   -0.202820
     11          1           0       -2.611021    1.653609   -0.493904
     12          1           0       -3.915648   -0.463492   -0.586805
     13          1           0       -2.785397   -2.626838   -0.076943
     14          1           0       -0.382971   -2.647597    0.517785
     15          1           0        1.567957   -1.490953    1.260596
     16          1           0        1.634734    0.268957    1.297133
     17          1           0        1.972351    0.262742   -1.207295
     18          1           0        1.981502   -1.500635   -1.168584
     19          1           0        3.919569    0.186386    0.240423
     20          1           0        4.217313   -0.772725   -1.036929
 ---------------------------------------------------------------------

 SCF Done:  E(RM062X) =  -825.795331653     A.U. after    1 cycles

      1  Cl   Isotropic =   701.9688   Anisotropy =   433.0881

      2  C    Isotropic =    21.4391   Anisotropy =   131.5914

      3  C    Isotropic =    34.2113   Anisotropy =   182.3924

      4  C    Isotropic =    36.2512   Anisotropy =   208.6674

      5  C    Isotropic =    37.0582   Anisotropy =   212.3400

      6  C    Isotropic =    31.7150   Anisotropy =   192.6022

      7  C    Isotropic =    21.7815   Anisotropy =   216.7068

      8  C    Isotropic =   143.4082   Anisotropy =    36.7742

      9  C    Isotropic =   137.8914   Anisotropy =    46.4669

     10  N    Isotropic =   227.2341   Anisotropy =    37.7904

     11  H    Isotropic =    23.8027   Anisotropy =     9.3186

     12  H    Isotropic =    23.9742   Anisotropy =     5.5204

     13  H    Isotropic =    23.9359   Anisotropy =     5.7508

     14  H    Isotropic =    23.7641   Anisotropy =     9.0664

     15  H    Isotropic =    29.0676   Anisotropy =     6.7527

     16  H    Isotropic =    28.8500   Anisotropy =     3.9295

     17  H    Isotropic =    28.6796   Anisotropy =     6.8906

     18  H    Isotropic =    29.4767   Anisotropy =     4.9154

     19  H    Isotropic =    31.5744   Anisotropy =    11.7811

     20  H    Isotropic =    31.2406   Anisotropy =    15.4294

 The electronic state is 1-A.
 Alpha  occ. eigenvalues -- -102.64525 -14.72846 -10.60743 -10.56480 -10.56186
 Alpha  occ. eigenvalues --  -10.55649 -10.55345 -10.55262 -10.55111 -10.54045
 Alpha  occ. eigenvalues --   -9.80765  -7.52957  -7.52458  -7.52443  -0.99951
 Alpha  occ. eigenvalues --   -0.98703  -0.93524  -0.88516  -0.83399  -0.80382
 Alpha  occ. eigenvalues --   -0.71149  -0.69401  -0.66448  -0.59212  -0.56778
 Alpha  occ. eigenvalues --   -0.54991  -0.53612  -0.51972  -0.49714  -0.49351
 Alpha  occ. eigenvalues --   -0.47135  -0.46341  -0.43647  -0.42153  -0.41262
 Alpha  occ. eigenvalues --   -0.40618  -0.39891  -0.37557  -0.31722  -0.30993
 Alpha  occ. eigenvalues --   -0.29932
 Alpha virt. eigenvalues --    0.00956   0.01165   0.06035   0.06611   0.09052
 Alpha virt. eigenvalues --    0.10141   0.10405   0.11281   0.12554   0.13711
 Alpha virt. eigenvalues --    0.14175   0.16023   0.16287   0.17062   0.17491

 Mulliken charges:
               1
     1  Cl  -0.095574
     2  C    0.023536
     3  C   -0.171655
     4  C   -0.142891
     5  C   -0.150857
     6  C   -0.156542
     7  C    0.104201
     8  C   -0.376487
     9  C   -0.156757
    10  N   -0.548229
    11  H    0.156911
    12  H    0.147270
    13  H    0.146458
    14  H    0.155311
    15  H    0.155564
    16  H    0.168914
    17  H    0.144192
    18  H    0.135207
    19  H    0.231110
    20  H    0.230318
 Sum of Mulliken charges =  -0.00000

 Dipole moment (field-independent basis, Debye):
    X=             -0.5509    Y=             -0.5245    Z=             -0.8899  Tot=              1.1707
 Quadrupole moment (field-independent basis, Debye-Ang):
   XX=            -60.5791   YY=            -66.5955   ZZ=            -69.0014
   XY=              4.5572   XZ=             -1.7828   YZ=              0.4838

 Normal termination of Gaussian 16 at Mon Feb 21 19:43:39 2022.
