 Gaussian 16, Revision C.01,

 ----------------------------------------------------------------------
 # B3LYP/6-31G(d,p) empiricaldispersion=GD3BJ int=(grid=ultrafine) opt
 freq=noraman
 ----------------------------------------------------------------------

 ------
 N3.xyz
 ------
 Symbolic Z-matrix:
 Charge =  0 Multiplicity = 1

 SCF Done:  E(RB3LYP) =  -825.868695973     A.U. after   14 cycles
 SCF Done:  E(RB3LYP) =  -825.871623036     A.U. after   12 cycles
 SCF Done:  E(RB3LYP) =  -825.871926525     A.U. after   10 cycles
 SCF Done:  E(RB3LYP) =  -825.871967502     A.U. after   10 cycles
 SCF Done:  E(RB3LYP) =  -825.871972325     A.U. after    8 cycles
 SCF Done:  E(RB3LYP) =  -825.871975546     A.U. after    9 cycles
 SCF Done:  E(RB3LYP) =  -825.871976700     A.U. after    8 cycles
 SCF Done:  E(RB3LYP) =  -825.871976966     A.U. after    7 cycles
 Optimization completed.
    -- Stationary point found.
 Normal termination of Gaussian 16 at Mon Feb 21 19:20:34 2022.

 ----------------------------------------------------------------------
 #N Geom=AllCheck Guess=TCheck SCRF=Check GenChk RB3LYP/6-31G(d,p) Freq
 ----------------------------------------------------------------------

 Structure from the checkpoint file:  "N3_conf-7.chk"
 ------
 N3.xyz
 ------
 Charge =  0 Multiplicity = 1

 SCF Done:  E(RB3LYP) =  -825.871976966     A.U. after    1 cycles

                      1                      2                      3
                      A                      A                      A
 Frequencies --     44.0863                88.7044               136.0428
 Red. masses --      4.2080                 4.1403                 2.4882
 Frc consts  --      0.0048                 0.0192                 0.0271
 IR Inten    --      0.8591                 2.1248                 4.8505

                      4                      5                      6
                      A                      A                      A
 Frequencies --    169.2513               225.8346               257.7504
 Red. masses --      3.5894                 1.4955                 2.7469
 Frc consts  --      0.0606                 0.0449                 0.1075
 IR Inten    --      4.3128                21.5738                 8.7247

                      7                      8                      9
                      A                      A                      A
 Frequencies --    319.3316               361.2092               433.1072
 Red. masses --      3.3002                 4.9985                 3.2356
 Frc consts  --      0.1983                 0.3842                 0.3576
 IR Inten    --      2.0000                 2.5291                 4.3347

                     10                     11                     12
                      A                      A                      A
 Frequencies --    451.5769               472.9582               534.0706
 Red. masses --      2.7062                 3.5647                 4.6567
 Frc consts  --      0.3251                 0.4698                 0.7826
 IR Inten    --      1.2506                10.8170                 3.6849

                     13                     14                     15
                      A                      A                      A
 Frequencies --    594.4615               689.0794               734.7291
 Red. masses --      3.2324                 6.1089                 3.8713
 Frc consts  --      0.6730                 1.7090                 1.2313
 IR Inten    --      5.6055                17.1962                 2.6535

                     16                     17                     18
                      A                      A                      A
 Frequencies --    763.6134               793.6951               832.0610
 Red. masses --      1.2549                 2.7272                 1.6078
 Frc consts  --      0.4311                 1.0122                 0.6558
 IR Inten    --     37.4842                 7.1304                95.1542

                     19                     20                     21
                      A                      A                      A
 Frequencies --    865.2552               895.8794               944.1485
 Red. masses --      1.3690                 1.9913                 1.3643
 Frc consts  --      0.6039                 0.9417                 0.7166
 IR Inten    --      5.4048                 7.3077                 0.5845

                     22                     23                     24
                      A                      A                      A
 Frequencies --    968.7300               983.8030              1013.9223
 Red. masses --      1.8629                 1.2687                 1.6997
 Frc consts  --      1.0300                 0.7235                 1.0295
 IR Inten    --      8.1102                 0.0535                11.2777

                     25                     26                     27
                      A                      A                      A
 Frequencies --   1053.2928              1075.5658              1092.0790
 Red. masses --      5.2816                 2.0808                 2.4259
 Frc consts  --      3.4523                 1.4183                 1.7047
 IR Inten    --     36.7564                 1.8705                22.5177

                     28                     29                     30
                      A                      A                      A
 Frequencies --   1130.3516              1172.6555              1190.1979
 Red. masses --      1.5560                 1.2898                 1.0975
 Frc consts  --      1.1714                 1.0450                 0.9160
 IR Inten    --     11.4478                 0.3745                 0.1190

                     31                     32                     33
                      A                      A                      A
 Frequencies --   1232.2693              1271.8953              1311.5079
 Red. masses --      2.3312                 1.3034                 1.4008
 Frc consts  --      2.0857                 1.2423                 1.4196
 IR Inten    --      2.3500                 8.2483                 1.0466

                     34                     35                     36
                      A                      A                      A
 Frequencies --   1329.1436              1359.3998              1382.1467
 Red. masses --      1.6506                 2.8468                 1.3889
 Frc consts  --      1.7181                 3.0995                 1.5633
 IR Inten    --      3.2875                 1.3759                 4.2811

                     37                     38                     39
                      A                      A                      A
 Frequencies --   1423.3249              1482.7838              1500.0194
 Red. masses --      1.3768                 2.1308                 1.1307
 Frc consts  --      1.6433                 2.7602                 1.4990
 IR Inten    --     16.4614                15.1081                 7.1366

                     40                     41                     42
                      A                      A                      A
 Frequencies --   1518.8361              1524.1976              1628.9315
 Red. masses --      1.8729                 1.2879                 5.7784
 Frc consts  --      2.5455                 1.7629                 9.0337
 IR Inten    --     20.8319                 8.0952                 6.1869

                     43                     44                     45
                      A                      A                      A
 Frequencies --   1655.7780              1668.3277              2960.6191
 Red. masses --      6.2800                 1.0936                 1.0734
 Frc consts  --     10.1440                 1.7933                 5.5433
 IR Inten    --      1.7582                24.5640               104.0434

                     46                     47                     48
                      A                      A                      A
 Frequencies --   3047.6234              3089.0694              3108.6847
 Red. masses --      1.0663                 1.0886                 1.0983
 Frc consts  --      5.8352                 6.1205                 6.2533
 IR Inten    --     25.1332                25.2266                14.9115

                     49                     50                     51
                      A                      A                      A
 Frequencies --   3187.3693              3199.4496              3210.4458
 Red. masses --      1.0855                 1.0901                 1.0951
 Frc consts  --      6.4973                 6.5747                 6.6503
 IR Inten    --      0.6301                15.1713                19.2139

                     52                     53                     54
                      A                      A                      A
 Frequencies --   3220.5965              3492.8631              3581.0410
 Red. masses --      1.0959                 1.0502                 1.0922
 Frc consts  --      6.6971                 7.5486                 8.2522
 IR Inten    --      6.6347                 1.1774                 0.0561

 - Thermochemistry -
 -------------------
 Temperature   298.150 Kelvin.  Pressure   1.00000 Atm.
 Atom     1 has atomic number 17 and mass  34.96885

 Molecular mass:   155.05018 amu.
 Principal axes and moments of inertia in atomic units:
                           1         2         3
     Eigenvalues --  1355.342701722.609452789.93936
           X            0.99938   0.03477   0.00476
           Y           -0.03477   0.99940  -0.00028
           Z           -0.00476   0.00011   0.99999
 This molecule is an asymmetric top.
 Rotational symmetry number  1.
 Warning -- assumption of classical behavior for rotation
           may cause significant error
 Rotational temperatures (Kelvin)      0.06391     0.05028     0.03105
 Rotational constants (GHZ):           1.33158     1.04768     0.64687
 Zero-point vibrational energy     434685.7 (Joules/Mol)
                                  103.89237 (Kcal/Mol)
 Warning -- explicit consideration of  13 degrees of freedom as
           vibrations may cause significant error
 Vibrational temperatures:     63.43   127.63   195.74   243.51   324.93
          (Kelvin)            370.85   459.45   519.70   623.14   649.72
                              680.48   768.41   855.30   991.43  1057.11
                             1098.67  1141.95  1197.15  1244.91  1288.97
                             1358.42  1393.79  1415.47  1458.81  1515.45
                             1547.50  1571.26  1626.32  1687.19  1712.43
                             1772.96  1829.97  1886.97  1912.34  1955.87
                             1988.60  2047.85  2133.40  2158.19  2185.27
                             2192.98  2343.67  2382.30  2400.35  4259.67
                             4384.85  4444.48  4472.70  4585.91  4603.29
                             4619.12  4633.72  5025.45  5152.32

 Zero-point correction=                           0.165563 (Hartree/Particle)
 Thermal correction to Energy=                    0.175143
 Thermal correction to Enthalpy=                  0.176087
 Thermal correction to Gibbs Free Energy=         0.129861
 Sum of electronic and zero-point Energies=           -825.706414
 Sum of electronic and thermal Energies=              -825.696834
 Sum of electronic and thermal Enthalpies=            -825.695890
 Sum of electronic and thermal Free Energies=         -825.742115

                     E (Thermal)             CV                S
                      KCal/Mol        Cal/Mol-Kelvin    Cal/Mol-Kelvin
 Total                  109.904             35.957             97.290
 Electronic               0.000              0.000              0.000
 Translational            0.889              2.981             41.025
 Rotational               0.889              2.981             30.255
 Vibrational            108.126             29.996             26.009
 Vibration     1          0.595              1.980              5.066
 Vibration     2          0.602              1.957              3.688
 Vibration     3          0.614              1.917              2.859
 Vibration     4          0.625              1.880              2.444
 Vibration     5          0.650              1.802              1.912
 Vibration     6          0.667              1.750              1.677
 Vibration     7          0.705              1.637              1.314
 Vibration     8          0.735              1.552              1.117
 Vibration     9          0.794              1.398              0.849
 Vibration    10          0.810              1.357              0.791
 Vibration    11          0.830              1.310              0.729
 Vibration    12          0.889              1.175              0.578
 Vibration    13          0.952              1.044              0.459

 Optimization completed.
    -- Stationary point found.
 Normal termination of Gaussian 16 at Mon Feb 21 19:21:04 2022.

 ----------------------------------------------------------------------
 # M062X/def2tzvp int=(grid=ultrafine) pop=nbo7 polar prop=efg volume g
 uess=read geom=check
 ----------------------------------------------------------------------

 ------
 N3.xyz
 ------
 Structure from the checkpoint file:  "N3_conf-7.chk"
 Charge =  0 Multiplicity = 1

 SCF Done:  E(RM062X) =  -825.794540134     A.U. after   12 cycles

  Exact polarizability:     126.306       6.647     128.352      10.133      -2.540      77.182
 Approx polarizability:     150.185       5.841     168.134      16.708      -5.456     106.059

 Summary of Natural Population Analysis:

                                     Natural Population
             Natural    ---------------------------------------------
  Atom No    Charge        Core      Valence    Rydberg      Total
 --------------------------------------------------------------------
   Cl  1   -0.02900      9.99998     7.01204    0.01698    17.02900
    C  2   -0.02089      1.99999     3.99671    0.02419     6.02089
    C  3   -0.23133      1.99999     4.21307    0.01827     6.23133
    C  4   -0.20649      1.99999     4.19041    0.01609     6.20649
    C  5   -0.21378      1.99999     4.19750    0.01629     6.21378
    C  6   -0.17890      1.99999     4.16225    0.01666     6.17890
    C  7   -0.03833      1.99999     4.01760    0.02074     6.03833
    C  8   -0.42621      1.99999     4.41244    0.01378     6.42621
    C  9   -0.20554      1.99999     4.19280    0.01276     6.20554
    N 10   -0.83626      1.99999     5.81124    0.02502     7.83626
    H 11    0.22818      0.00000     0.77035    0.00146     0.77182
    H 12    0.21791      0.00000     0.78096    0.00113     0.78209
    H 13    0.21659      0.00000     0.78227    0.00114     0.78341
    H 14    0.21699      0.00000     0.78149    0.00152     0.78301
    H 15    0.20685      0.00000     0.79135    0.00180     0.79315
    H 16    0.22846      0.00000     0.76985    0.00169     0.77154
    H 17    0.16847      0.00000     0.82948    0.00205     0.83153
    H 18    0.19700      0.00000     0.80111    0.00188     0.80300
    H 19    0.35934      0.00000     0.63914    0.00152     0.64066
    H 20    0.34695      0.00000     0.65109    0.00196     0.65305
 ====================================================================
 * Total *  0.00000     27.99991    53.80316    0.19693    82.00000

 Normal termination of Gaussian 16 at Mon Feb 21 19:22:34 2022.
 Gaussian 16:  ES64L-G16RevC.01  3-Jul-2019

 --------------------------------------------------------------------
 # M062X/def2tzvp int=(grid=ultrafine) nmr=giao guess=read geom=check
 --------------------------------------------------------------------

 ------
 N3.xyz
 ------
 Structure from the checkpoint file:  "N3_conf-7.chk"
 Charge =  0 Multiplicity = 1

                         Standard orientation:
 ---------------------------------------------------------------------
 Center     Atomic      Atomic             Coordinates (Angstroms)
 Number     Number       Type             X           Y           Z
 ---------------------------------------------------------------------
      1         17           0       -0.499445    2.314846   -0.037462
      2          6           0       -0.859338    0.584815    0.036412
      3          6           0       -2.122569    0.171403   -0.382885
      4          6           0       -2.440268   -1.184335   -0.353786
      5          6           0       -1.494398   -2.108102    0.090364
      6          6           0       -0.240652   -1.670265    0.507580
      7          6           0        0.110185   -0.313819    0.498940
      8          6           0        1.486300    0.125579    0.928727
      9          6           0        2.475297    0.228022   -0.245849
     10          7           0        2.740716   -1.096622   -0.810460
     11          1           0       -2.840515    0.907223   -0.726204
     12          1           0       -3.422500   -1.512627   -0.678577
     13          1           0       -1.732073   -3.166908    0.110555
     14          1           0        0.500854   -2.387983    0.842105
     15          1           0        1.880549   -0.590661    1.659632
     16          1           0        1.434228    1.096240    1.429498
     17          1           0        3.377816    0.757177    0.105191
     18          1           0        2.029808    0.850247   -1.028643
     19          1           0        3.237376   -1.009045   -1.692616
     20          1           0        3.352679   -1.619482   -0.187892
 ---------------------------------------------------------------------

 SCF Done:  E(RM062X) =  -825.794540134     A.U. after    1 cycles

      1  Cl   Isotropic =   703.8274   Anisotropy =   420.5381

      2  C    Isotropic =    22.5476   Anisotropy =   129.1692

      3  C    Isotropic =    34.9721   Anisotropy =   180.5017

      4  C    Isotropic =    36.8017   Anisotropy =   208.1842

      5  C    Isotropic =    38.9921   Anisotropy =   210.1215

      6  C    Isotropic =    27.6491   Anisotropy =   196.6623

      7  C    Isotropic =    22.4128   Anisotropy =   215.9677

      8  C    Isotropic =   144.5167   Anisotropy =    17.5442

      9  C    Isotropic =   140.4187   Anisotropy =    22.1079

     10  N    Isotropic =   231.8242   Anisotropy =    39.4372

     11  H    Isotropic =    23.7929   Anisotropy =     9.1568

     12  H    Isotropic =    23.9639   Anisotropy =     5.5191

     13  H    Isotropic =    23.9858   Anisotropy =     5.8466

     14  H    Isotropic =    23.7431   Anisotropy =     9.3183

     15  H    Isotropic =    29.6270   Anisotropy =     7.0817

     16  H    Isotropic =    28.5570   Anisotropy =     5.6152

     17  H    Isotropic =    28.6284   Anisotropy =     8.6719

     18  H    Isotropic =    29.2479   Anisotropy =     6.9611

     19  H    Isotropic =    31.5042   Anisotropy =    15.8666

     20  H    Isotropic =    31.9723   Anisotropy =    13.5543

 The electronic state is 1-A.
 Alpha  occ. eigenvalues -- -102.64036 -14.72975 -10.60118 -10.56367 -10.55744
 Alpha  occ. eigenvalues --  -10.54968 -10.54680 -10.54448 -10.54339 -10.54090
 Alpha  occ. eigenvalues --   -9.80278  -7.52468  -7.51972  -7.51957  -0.99746
 Alpha  occ. eigenvalues --   -0.98441  -0.92885  -0.87911  -0.82791  -0.80288
 Alpha  occ. eigenvalues --   -0.71012  -0.68875  -0.65739  -0.58658  -0.56734
 Alpha  occ. eigenvalues --   -0.54828  -0.53387  -0.51652  -0.49353  -0.48753
 Alpha  occ. eigenvalues --   -0.47003  -0.45765  -0.43280  -0.41895  -0.40991
 Alpha  occ. eigenvalues --   -0.40480  -0.39352  -0.37050  -0.31442  -0.30519
 Alpha  occ. eigenvalues --   -0.29307
 Alpha virt. eigenvalues --    0.01715   0.01797   0.05887   0.06785   0.09405
 Alpha virt. eigenvalues --    0.10191   0.10707   0.12304   0.13132   0.14025
 Alpha virt. eigenvalues --    0.14181   0.14632   0.16136   0.17136   0.18566

 Mulliken charges:
               1
     1  Cl  -0.102280
     2  C    0.027186
     3  C   -0.174002
     4  C   -0.144500
     5  C   -0.150094
     6  C   -0.158342
     7  C    0.205459
     8  C   -0.437075
     9  C   -0.176812
    10  N   -0.549203
    11  H    0.154334
    12  H    0.144422
    13  H    0.142523
    14  H    0.137590
    15  H    0.167409
    16  H    0.168170
    17  H    0.126762
    18  H    0.156199
    19  H    0.234068
    20  H    0.228186
 Sum of Mulliken charges =  -0.00000

 Dipole moment (field-independent basis, Debye):
    X=              1.4864    Y=             -1.2151    Z=              0.0816  Tot=              1.9216
 Quadrupole moment (field-independent basis, Debye-Ang):
   XX=            -55.3867   YY=            -66.8429   ZZ=            -68.1277
   XY=              0.2548   XZ=              1.7464   YZ=             -1.6058

 Normal termination of Gaussian 16 at Mon Feb 21 19:23:10 2022.
