 Gaussian 16, Revision C.01,

 ----------------------------------------------------------------------
 # B3LYP/6-31G(d,p) empiricaldispersion=GD3BJ int=(grid=ultrafine) opt
 freq=noraman
 ----------------------------------------------------------------------

 ------
 N3.xyz
 ------
 Symbolic Z-matrix:
 Charge =  0 Multiplicity = 1

 SCF Done:  E(RB3LYP) =  -825.868392383     A.U. after   14 cycles
 SCF Done:  E(RB3LYP) =  -825.870970772     A.U. after   12 cycles
 SCF Done:  E(RB3LYP) =  -825.871194217     A.U. after   11 cycles
 SCF Done:  E(RB3LYP) =  -825.871215736     A.U. after   10 cycles
 SCF Done:  E(RB3LYP) =  -825.871217764     A.U. after    8 cycles
 Optimization completed.
    -- Stationary point found.
 Normal termination of Gaussian 16 at Mon Feb 21 19:26:55 2022.

 ----------------------------------------------------------------------
 #N Geom=AllCheck Guess=TCheck SCRF=Check GenChk RB3LYP/6-31G(d,p) Freq
 ----------------------------------------------------------------------

 Structure from the checkpoint file:  "N3_conf-5.chk"
 ------
 N3.xyz
 ------
 Charge =  0 Multiplicity = 1

 SCF Done:  E(RB3LYP) =  -825.871217764     A.U. after    1 cycles

                      1                      2                      3
                      A                      A                      A
 Frequencies --     57.0771               109.5721               131.2377
 Red. masses --      2.9764                 1.7178                 5.8970
 Frc consts  --      0.0057                 0.0122                 0.0598
 IR Inten    --      1.7106                 4.6781                 2.1797

                      4                      5                      6
                      A                      A                      A
 Frequencies --    167.2674               250.4997               254.8026
 Red. masses --      3.8838                 3.3798                 5.8009
 Frc consts  --      0.0640                 0.1250                 0.2219
 IR Inten    --      0.1211                 1.2849                 0.5069

                      7                      8                      9
                      A                      A                      A
 Frequencies --    307.7503               335.4580               417.2332
 Red. masses --      1.1281                 4.2212                 6.8774
 Frc consts  --      0.0630                 0.2799                 0.7054
 IR Inten    --     50.0835                 5.5454                 3.0623

                     10                     11                     12
                      A                      A                      A
 Frequencies --    447.8736               457.3790               520.3255
 Red. masses --      3.0772                 5.2278                 3.5881
 Frc consts  --      0.3637                 0.6444                 0.5724
 IR Inten    --      3.4874                 0.1918                 0.1331

                     13                     14                     15
                      A                      A                      A
 Frequencies --    610.5760               704.5350               709.1847
 Red. masses --      5.3906                 2.5547                 6.3959
 Frc consts  --      1.1840                 0.7471                 1.8953
 IR Inten    --      1.0265                 0.4161                22.5434

                     16                     17                     18
                      A                      A                      A
 Frequencies --    760.8753               782.6719               824.7867
 Red. masses --      1.3109                 1.2770                 3.4752
 Frc consts  --      0.4471                 0.4609                 1.3929
 IR Inten    --     30.0351                14.5626                26.9913

                     19                     20                     21
                      A                      A                      A
 Frequencies --    872.4762               886.9022               944.7772
 Red. masses --      1.3030                 1.6897                 1.3392
 Frc consts  --      0.5844                 0.7831                 0.7043
 IR Inten    --      0.0814               200.9938                 0.4224

                     22                     23                     24
                      A                      A                      A
 Frequencies --    986.2644               999.1241              1049.0786
 Red. masses --      1.2763                 1.3062                 4.5851
 Frc consts  --      0.7315                 0.7682                 2.9731
 IR Inten    --      0.4889                 2.1632                21.3611

                     25                     26                     27
                      A                      A                      A
 Frequencies --   1061.0907              1078.4761              1109.4055
 Red. masses --      4.9898                 2.1293                 3.1292
 Frc consts  --      3.3101                 1.4592                 2.2692
 IR Inten    --     63.6836                 1.9726                11.3406

                     28                     29                     30
                      A                      A                      A
 Frequencies --   1159.3484              1159.7219              1192.9207
 Red. masses --      1.6759                 1.2243                 1.1020
 Frc consts  --      1.3271                 0.9702                 0.9240
 IR Inten    --      7.3482                 0.1639                 0.2053

                     31                     32                     33
                      A                      A                      A
 Frequencies --   1222.0336              1306.2779              1314.8024
 Red. masses --      2.0400                 2.0466                 1.5523
 Frc consts  --      1.7949                 2.0576                 1.5811
 IR Inten    --      4.9456                 6.5089                 2.5385

                     34                     35                     36
                      A                      A                      A
 Frequencies --   1322.2222              1354.2063              1401.1978
 Red. masses --      1.1862                 2.8342                 1.1774
 Frc consts  --      1.2219                 3.0624                 1.3620
 IR Inten    --      0.1780                12.1786                 0.5613

                     37                     38                     39
                      A                      A                      A
 Frequencies --   1412.3525              1475.7792              1487.4304
 Red. masses --      1.4433                 1.4714                 1.4358
 Frc consts  --      1.6963                 1.8881                 1.8716
 IR Inten    --      2.4664                 2.8371                17.5380

                     40                     41                     42
                      A                      A                      A
 Frequencies --   1514.3520              1521.5810              1627.8772
 Red. masses --      1.3088                 1.8235                 5.5033
 Frc consts  --      1.7684                 2.4873                 8.5924
 IR Inten    --     14.4193                15.8123                 4.3362

                     43                     44                     45
                      A                      A                      A
 Frequencies --   1654.9296              1674.0701              3021.8635
 Red. masses --      6.1820                 1.0878                 1.0602
 Frc consts  --      9.9756                 1.7962                 5.7041
 IR Inten    --      2.9127                20.9567                 7.7969

                     46                     47                     48
                      A                      A                      A
 Frequencies --   3042.0071              3048.6264              3087.0161
 Red. masses --      1.0596                 1.1009                 1.1064
 Frc consts  --      5.7772                 6.0287                 6.2121
 IR Inten    --     36.9110                 5.0131                38.9519

                     49                     50                     51
                      A                      A                      A
 Frequencies --   3190.1354              3204.3003              3217.9221
 Red. masses --      1.0859                 1.0913                 1.0925
 Frc consts  --      6.5112                 6.6015                 6.6651
 IR Inten    --      1.3379                14.1437                13.6784

                     52                     53                     54
                      A                      A                      A
 Frequencies --   3222.0795              3479.4536              3562.8174
 Red. masses --      1.0963                 1.0492                 1.0923
 Frc consts  --      6.7057                 7.4836                 8.1690
 IR Inten    --      6.1965                 0.8557                 0.2599

 - Thermochemistry -
 -------------------
 Temperature   298.150 Kelvin.  Pressure   1.00000 Atm.
 Atom     1 has atomic number 17 and mass  34.96885

 Molecular mass:   155.05018 amu.
 Principal axes and moments of inertia in atomic units:
                           1         2         3
     Eigenvalues --  1207.792322214.617213390.88867
           X            0.99948  -0.03218  -0.00000
           Y            0.03218   0.99948   0.00000
           Z            0.00000  -0.00000   1.00000
 This molecule is an asymmetric top.
 Rotational symmetry number  1.
 Warning -- assumption of classical behavior for rotation
           may cause significant error
 Rotational temperatures (Kelvin)      0.07171     0.03911     0.02554
 Rotational constants (GHZ):           1.49425     0.81492     0.53223
 Zero-point vibrational energy     434926.5 (Joules/Mol)
                                  103.94992 (Kcal/Mol)
 Warning -- explicit consideration of  13 degrees of freedom as
           vibrations may cause significant error
 Vibrational temperatures:     82.12   157.65   188.82   240.66   360.41
          (Kelvin)            366.60   442.78   482.65   600.31   644.39
                              658.07   748.63   878.48  1013.67  1020.36
                             1094.73  1126.09  1186.68  1255.30  1276.05
                             1359.32  1419.01  1437.52  1509.39  1526.67
                             1551.69  1596.19  1668.04  1668.58  1716.35
                             1758.23  1879.44  1891.71  1902.38  1948.40
                             2016.01  2032.06  2123.32  2140.08  2178.81
                             2189.22  2342.15  2381.07  2408.61  4347.79
                             4376.77  4386.29  4441.53  4589.89  4610.27
                             4629.87  4635.85  5006.16  5126.10

 Zero-point correction=                           0.165655 (Hartree/Particle)
 Thermal correction to Energy=                    0.175217
 Thermal correction to Enthalpy=                  0.176161
 Thermal correction to Gibbs Free Energy=         0.130120
 Sum of electronic and zero-point Energies=           -825.705563
 Sum of electronic and thermal Energies=              -825.696001
 Sum of electronic and thermal Enthalpies=            -825.695057
 Sum of electronic and thermal Free Energies=         -825.741098

                     E (Thermal)             CV                S
                      KCal/Mol        Cal/Mol-Kelvin    Cal/Mol-Kelvin
 Total                  109.950             35.995             96.902
 Electronic               0.000              0.000              0.000
 Translational            0.889              2.981             41.025
 Rotational               0.889              2.981             30.584
 Vibrational            108.173             30.033             25.292
 Vibration     1          0.596              1.975              4.556
 Vibration     2          0.606              1.942              3.276
 Vibration     3          0.612              1.922              2.928
 Vibration     4          0.624              1.883              2.466
 Vibration     5          0.663              1.762              1.727
 Vibration     6          0.665              1.755              1.697
 Vibration     7          0.698              1.659              1.374
 Vibration     8          0.717              1.605              1.234
 Vibration     9          0.780              1.433              0.901
 Vibration    10          0.807              1.366              0.802
 Vibration    11          0.816              1.345              0.774
 Vibration    12          0.875              1.205              0.609
 Vibration    13          0.970              1.009              0.432

 Optimization completed.
    -- Stationary point found.
 Normal termination of Gaussian 16 at Mon Feb 21 19:27:15 2022.

 ----------------------------------------------------------------------
 # M062X/def2tzvp int=(grid=ultrafine) pop=nbo7 polar prop=efg volume g
 uess=read geom=check
 ----------------------------------------------------------------------

 ------
 N3.xyz
 ------
 Structure from the checkpoint file:  "N3_conf-5.chk"
 Charge =  0 Multiplicity = 1

 SCF Done:  E(RM062X) =  -825.793622510     A.U. after   12 cycles

  Exact polarizability:     134.506      -6.460     129.231      -0.000       0.000      70.051
 Approx polarizability:     155.398      -5.547     169.156      -0.000      -0.000      98.851

 Summary of Natural Population Analysis:

                                     Natural Population
             Natural    ---------------------------------------------
  Atom No    Charge        Core      Valence    Rydberg      Total
 --------------------------------------------------------------------
   Cl  1   -0.01965      9.99998     7.00269    0.01698    17.01965
    C  2   -0.01788      1.99999     3.99413    0.02375     6.01788
    C  3   -0.22539      1.99999     4.20734    0.01806     6.22539
    C  4   -0.20748      1.99999     4.19132    0.01617     6.20748
    C  5   -0.20897      1.99999     4.19256    0.01642     6.20897
    C  6   -0.20684      1.99999     4.19101    0.01584     6.20684
    C  7   -0.03780      1.99999     4.01940    0.01842     6.03780
    C  8   -0.43990      1.99999     4.42579    0.01411     6.43990
    C  9   -0.21424      1.99999     4.20015    0.01410     6.21424
    N 10   -0.81660      1.99999     5.79136    0.02525     7.81660
    H 11    0.22986      0.00000     0.76870    0.00144     0.77014
    H 12    0.21975      0.00000     0.77912    0.00113     0.78025
    H 13    0.21780      0.00000     0.78105    0.00115     0.78220
    H 14    0.21758      0.00000     0.78086    0.00157     0.78242
    H 15    0.21870      0.00000     0.77905    0.00225     0.78130
    H 16    0.21870      0.00000     0.77905    0.00225     0.78130
    H 17    0.18827      0.00000     0.80989    0.00184     0.81173
    H 18    0.18827      0.00000     0.80989    0.00184     0.81173
    H 19    0.34790      0.00000     0.65016    0.00193     0.65210
    H 20    0.34790      0.00000     0.65016    0.00193     0.65210
 ====================================================================
 * Total *  0.00000     27.99991    53.80366    0.19643    82.00000

 Normal termination of Gaussian 16 at Mon Feb 21 19:28:23 2022.
 Gaussian 16:  ES64L-G16RevC.01  3-Jul-2019

 --------------------------------------------------------------------
 # M062X/def2tzvp int=(grid=ultrafine) nmr=giao guess=read geom=check
 --------------------------------------------------------------------

 ------
 N3.xyz
 ------
 Structure from the checkpoint file:  "N3_conf-5.chk"
 Charge =  0 Multiplicity = 1

                         Standard orientation:
 ---------------------------------------------------------------------
 Center     Atomic      Atomic             Coordinates (Angstroms)
 Number     Number       Type             X           Y           Z
 ---------------------------------------------------------------------
      1         17           0        0.867857    2.295953   -0.000001
      2          6           0        1.074948    0.543412    0.000001
      3          6           0        2.373865    0.043398    0.000001
      4          6           0        2.574159   -1.335964    0.000001
      5          6           0        1.475230   -2.191396    0.000001
      6          6           0        0.182489   -1.668474    0.000000
      7          6           0       -0.056575   -0.287587   -0.000000
      8          6           0       -1.451309    0.296937   -0.000000
      9          6           0       -2.610308   -0.708974   -0.000009
     10          7           0       -3.943885   -0.107085    0.000005
     11          1           0        3.211874    0.730821    0.000001
     12          1           0        3.584267   -1.732690    0.000002
     13          1           0        1.619542   -3.267027    0.000001
     14          1           0       -0.659373   -2.350997    0.000001
     15          1           0       -1.556603    0.957800   -0.871231
     16          1           0       -1.556607    0.957790    0.871238
     17          1           0       -2.537609   -1.361539    0.878000
     18          1           0       -2.537617   -1.361515   -0.878037
     19          1           0       -4.044615    0.498811    0.812165
     20          1           0       -4.044619    0.498839   -0.812133
 ---------------------------------------------------------------------

 SCF Done:  E(RM062X) =  -825.793622510     A.U. after    1 cycles

      1  Cl   Isotropic =   694.7882   Anisotropy =   397.6057

      2  C    Isotropic =    20.9765   Anisotropy =   133.7023

      3  C    Isotropic =    34.5799   Anisotropy =   182.3584

      4  C    Isotropic =    36.3813   Anisotropy =   207.4355

      5  C    Isotropic =    37.7370   Anisotropy =   213.8683

      6  C    Isotropic =    37.1230   Anisotropy =   208.1171

      7  C    Isotropic =    23.1455   Anisotropy =   212.5843

      8  C    Isotropic =   141.2728   Anisotropy =    44.2282

      9  C    Isotropic =   141.5964   Anisotropy =    38.6929

     10  N    Isotropic =   226.1170   Anisotropy =    25.1125

     11  H    Isotropic =    23.7401   Anisotropy =     9.2443

     12  H    Isotropic =    23.9110   Anisotropy =     5.6676

     13  H    Isotropic =    23.9558   Anisotropy =     6.1389

     14  H    Isotropic =    23.9110   Anisotropy =    11.3981

     15  H    Isotropic =    29.1261   Anisotropy =     4.9250

     16  H    Isotropic =    29.1261   Anisotropy =     4.9249

     17  H    Isotropic =    28.8519   Anisotropy =     6.4563

     18  H    Isotropic =    28.8519   Anisotropy =     6.4562

     19  H    Isotropic =    31.5155   Anisotropy =    12.4058

     20  H    Isotropic =    31.5155   Anisotropy =    12.4058

 The electronic state is 1-A.
 Alpha  occ. eigenvalues -- -102.64558 -14.73150 -10.60774 -10.56861 -10.56608
 Alpha  occ. eigenvalues --  -10.55715 -10.55379 -10.55360 -10.55176 -10.54649
 Alpha  occ. eigenvalues --   -9.80799  -7.52991  -7.52494  -7.52474  -1.00124
 Alpha  occ. eigenvalues --   -0.99095  -0.93591  -0.88645  -0.83432  -0.80471
 Alpha  occ. eigenvalues --   -0.72909  -0.68375  -0.66996  -0.59252  -0.58044
 Alpha  occ. eigenvalues --   -0.54986  -0.53255  -0.50859  -0.50776  -0.49306
 Alpha  occ. eigenvalues --   -0.48209  -0.45842  -0.44848  -0.42580  -0.41183
 Alpha  occ. eigenvalues --   -0.40974  -0.40178  -0.37591  -0.31504  -0.31485
 Alpha  occ. eigenvalues --   -0.30037
 Alpha virt. eigenvalues --    0.00887   0.01187   0.05407   0.06515   0.09029
 Alpha virt. eigenvalues --    0.10124   0.10245   0.10444   0.12305   0.13377
 Alpha virt. eigenvalues --    0.15439   0.15708   0.16479   0.17588   0.18673

 Mulliken charges:
               1
     1  Cl  -0.092212
     2  C    0.030754
     3  C   -0.173849
     4  C   -0.142574
     5  C   -0.164838
     6  C   -0.170885
     7  C    0.078345
     8  C   -0.324576
     9  C   -0.199334
    10  N   -0.521776
    11  H    0.157259
    12  H    0.146926
    13  H    0.146572
    14  H    0.167822
    15  H    0.154592
    16  H    0.154591
    17  H    0.153538
    18  H    0.153540
    19  H    0.223053
    20  H    0.223053
 Sum of Mulliken charges =  -0.00000

 Dipole moment (field-independent basis, Debye):
    X=              0.7053    Y=             -0.5626    Z=              0.0000  Tot=              0.9022
 Quadrupole moment (field-independent basis, Debye-Ang):
   XX=            -68.5153   YY=            -65.6289   ZZ=            -68.5593
   XY=             -7.1756   XZ=             -0.0001   YZ=             -0.0000

 Normal termination of Gaussian 16 at Mon Feb 21 19:28:49 2022.
