 Gaussian 16, Revision C.01,

 ----------------------------------------------------------------------
 # B3LYP/6-31G(d,p) empiricaldispersion=GD3BJ int=(grid=ultrafine) opt
 freq=noraman
 ----------------------------------------------------------------------

 ------
 N4.xyz
 ------
 Symbolic Z-matrix:
 Charge =  0 Multiplicity = 1

 SCF Done:  E(RB3LYP) =  -558.038895057     A.U. after   14 cycles
 SCF Done:  E(RB3LYP) =  -558.041062865     A.U. after   11 cycles
 SCF Done:  E(RB3LYP) =  -558.041373119     A.U. after   11 cycles
 SCF Done:  E(RB3LYP) =  -558.041498609     A.U. after   11 cycles
 SCF Done:  E(RB3LYP) =  -558.041542248     A.U. after   11 cycles
 SCF Done:  E(RB3LYP) =  -558.041557206     A.U. after   10 cycles
 SCF Done:  E(RB3LYP) =  -558.041559457     A.U. after    8 cycles
 SCF Done:  E(RB3LYP) =  -558.041559743     A.U. after    7 cycles
 SCF Done:  E(RB3LYP) =  -558.041559859     A.U. after    7 cycles
 Optimization completed.
    -- Stationary point found.
 Normal termination of Gaussian 16 at Mon Feb 21 19:38:04 2022.

 ----------------------------------------------------------------------
 #N Geom=AllCheck Guess=TCheck SCRF=Check GenChk RB3LYP/6-31G(d,p) Freq
 ----------------------------------------------------------------------

 Structure from the checkpoint file:  "N4_conf-1.chk"
 ------
 N4.xyz
 ------
 Charge =  0 Multiplicity = 1

 SCF Done:  E(RB3LYP) =  -558.041559859     A.U. after    1 cycles

                      1                      2                      3
                      A                      A                      A
 Frequencies --     43.3579                66.4866                78.0807
 Red. masses --      3.6996                 3.4381                 3.5284
 Frc consts  --      0.0041                 0.0090                 0.0127
 IR Inten    --      0.7646                 2.1081                 1.0608

                      4                      5                      6
                      A                      A                      A
 Frequencies --    106.3747               159.4989               241.8483
 Red. masses --      3.7356                 3.4319                 4.2112
 Frc consts  --      0.0249                 0.0514                 0.1451
 IR Inten    --      0.5239                 1.7223                 1.8702

                      7                      8                      9
                      A                      A                      A
 Frequencies --    260.0310               294.3057               325.6262
 Red. masses --      1.6138                 3.8242                 2.3696
 Frc consts  --      0.0643                 0.1952                 0.1480
 IR Inten    --     37.3827                 4.4135                25.8629

                     10                     11                     12
                      A                      A                      A
 Frequencies --    415.0859               416.9868               424.7524
 Red. masses --      3.4030                 3.0304                 3.0861
 Frc consts  --      0.3454                 0.3105                 0.3280
 IR Inten    --      1.2130                 0.7523                 0.8326

                     13                     14                     15
                      A                      A                      A
 Frequencies --    447.0048               517.8539               559.2705
 Red. masses --      4.2234                 3.7177                 2.9960
 Frc consts  --      0.4972                 0.5874                 0.5521
 IR Inten    --     11.9195                 6.0226                 1.0695

                     16                     17                     18
                      A                      A                      A
 Frequencies --    601.8423               634.1282               657.5333
 Red. masses --      3.9366                 6.4131                 6.8458
 Frc consts  --      0.8401                 1.5194                 1.7438
 IR Inten    --      6.0071                 0.0755                 0.0130

                     19                     20                     21
                      A                      A                      A
 Frequencies --    714.5076               715.7803               737.4290
 Red. masses --      2.1335                 3.4429                 3.1724
 Frc consts  --      0.6417                 1.0393                 1.0164
 IR Inten    --     17.0663                 8.9541                 3.6141

                     22                     23                     24
                      A                      A                      A
 Frequencies --    776.7867               817.1651               838.0047
 Red. masses --      1.8437                 4.0560                 1.3897
 Frc consts  --      0.6554                 1.5957                 0.5750
 IR Inten    --     48.6114                 8.7919                50.0959

                     25                     26                     27
                      A                      A                      A
 Frequencies --    860.4707               865.2031               870.7387
 Red. masses --      1.2471                 1.2605                 1.4521
 Frc consts  --      0.5440                 0.5559                 0.6487
 IR Inten    --      2.2119                13.0369                62.4009

                     28                     29                     30
                      A                      A                      A
 Frequencies --    929.7828               967.5859               974.3490
 Red. masses --      1.4151                 1.3138                 1.3474
 Frc consts  --      0.7208                 0.7247                 0.7537
 IR Inten    --      2.9393                 1.3563                 0.2788

                     31                     32                     33
                      A                      A                      A
 Frequencies --    988.7241               997.0304              1005.5431
 Red. masses --      1.3245                 1.2498                 1.6673
 Frc consts  --      0.7629                 0.7320                 0.9933
 IR Inten    --      2.2442                 0.2372                16.7025

                     34                     35                     36
                      A                      A                      A
 Frequencies --   1019.1356              1027.8844              1046.9399
 Red. masses --      5.9777                 5.7929                 2.9761
 Frc consts  --      3.6580                 3.6061                 1.9220
 IR Inten    --      0.9154                 7.5623                 0.5170

                     37                     38                     39
                      A                      A                      A
 Frequencies --   1068.0371              1073.7411              1111.9430
 Red. masses --      2.2568                 2.1192                 1.5747
 Frc consts  --      1.5167                 1.4395                 1.1471
 IR Inten    --      5.7621                 1.8070                 3.4778

                     40                     41                     42
                      A                      A                      A
 Frequencies --   1143.1707              1176.2333              1188.4071
 Red. masses --      1.3413                 1.2751                 1.0933
 Frc consts  --      1.0328                 1.0394                 0.9098
 IR Inten    --      3.1306                11.4107                 0.0764

                     43                     44                     45
                      A                      A                      A
 Frequencies --   1206.7976              1213.5927              1240.1758
 Red. masses --      1.1358                 1.1673                 2.2202
 Frc consts  --      0.9746                 1.0129                 2.0119
 IR Inten    --      0.3926                 0.2249                 0.6740

                     46                     47                     48
                      A                      A                      A
 Frequencies --   1300.2835              1315.4534              1318.4716
 Red. masses --      1.6199                 1.8636                 3.3336
 Frc consts  --      1.6137                 1.9000                 3.4143
 IR Inten    --      5.5560                 3.2158                 0.4149

                     49                     50                     51
                      A                      A                      A
 Frequencies --   1348.6276              1357.4029              1369.7340
 Red. masses --      1.8479                 2.4480                 1.9442
 Frc consts  --      1.9802                 2.6576                 2.1491
 IR Inten    --      0.8613                 1.4261                 1.2688

                     52                     53                     54
                      A                      A                      A
 Frequencies --   1427.8068              1452.9328              1493.5506
 Red. masses --      1.6470                 2.3537                 2.3942
 Frc consts  --      1.9782                 2.9274                 3.1467
 IR Inten    --     39.7522                15.9190                 2.3340

                     55                     56                     57
                      A                      A                      A
 Frequencies --   1517.4215              1534.9769              1564.6172
 Red. masses --      1.0959                 2.1560                 2.7171
 Frc consts  --      1.4867                 2.9930                 3.9189
 IR Inten    --      3.5983                30.7486                 4.0477

                     58                     59                     60
                      A                      A                      A
 Frequencies --   1617.6922              1640.0489              1661.8705
 Red. masses --      5.5617                 5.9833                 1.4804
 Frc consts  --      8.5752                 9.4821                 2.4090
 IR Inten    --      3.1803                 0.5354                15.1653

                     61                     62                     63
                      A                      A                      A
 Frequencies --   1662.9240              1674.7944              2957.6777
 Red. masses --      3.0660                 3.9637                 1.0724
 Frc consts  --      4.9953                 6.5505                 5.5273
 IR Inten    --     23.7255                 2.1263                76.4652

                     64                     65                     66
                      A                      A                      A
 Frequencies --   3031.5462              3169.6364              3178.0052
 Red. masses --      1.0886                 1.0879                 1.0846
 Frc consts  --      5.8944                 6.4399                 6.4538
 IR Inten    --     33.1649                21.0797                 3.9189

                     67                     68                     69
                      A                      A                      A
 Frequencies --   3184.2992              3189.2805              3194.4410
 Red. masses --      1.0876                 1.0886                 1.0919
 Frc consts  --      6.4975                 6.5238                 6.5651
 IR Inten    --      6.2981                 8.5198                13.5428

                     70                     71                     72
                      A                      A                      A
 Frequencies --   3197.9657              3201.6754              3209.0778
 Red. masses --      1.0922                 1.0936                 1.0983
 Frc consts  --      6.5813                 6.6051                 6.6641
 IR Inten    --      7.1363                39.0806                18.1942

                     73                     74                     75
                      A                      A                      A
 Frequencies --   3214.3623              3492.7248              3582.7382
 Red. masses --      1.0931                 1.0495                 1.0931
 Frc consts  --      6.6545                 7.5432                 8.2671
 IR Inten    --      4.3925                 2.2209                 0.5795

 - Thermochemistry -
 -------------------
 Temperature   298.150 Kelvin.  Pressure   1.00000 Atm.
 Atom     1 has atomic number  7 and mass  14.00307

 Molecular mass:   183.10480 amu.
 Principal axes and moments of inertia in atomic units:
                           1         2         3
     Eigenvalues --   715.558035985.898006466.52394
           X            1.00000   0.00141   0.00053
           Y           -0.00141   0.99998   0.00558
           Z           -0.00052  -0.00558   0.99998
 This molecule is an asymmetric top.
 Rotational symmetry number  1.
 Warning -- assumption of classical behavior for rotation
           may cause significant error
 Rotational temperatures (Kelvin)      0.12104     0.01447     0.01339
 Rotational constants (GHZ):           2.52215     0.30150     0.27909
 Zero-point vibrational energy     597458.5 (Joules/Mol)
                                  142.79602 (Kcal/Mol)
 Warning -- explicit consideration of  16 degrees of freedom as
           vibrations may cause significant error
 Vibrational temperatures:     62.38    95.66   112.34   153.05   229.48
          (Kelvin)            347.97   374.13   423.44   468.50   597.22
                              599.95   611.12   643.14   745.08   804.67
                              865.92   912.37   946.04  1028.02  1029.85
                             1061.00  1117.62  1175.72  1205.70  1238.03
                             1244.83  1252.80  1337.75  1392.14  1401.87
                             1422.55  1434.50  1446.75  1466.31  1478.90
                             1506.31  1536.67  1544.87  1599.84  1644.77
                             1692.34  1709.85  1736.31  1746.09  1784.34
                             1870.82  1892.64  1896.99  1940.37  1953.00
                             1970.74  2054.30  2090.45  2148.89  2183.23
                             2208.49  2251.14  2327.50  2359.66  2391.06
                             2392.58  2409.66  4255.44  4361.72  4560.40
                             4572.44  4581.50  4588.66  4596.09  4601.16
                             4606.50  4617.15  4624.75  5025.25  5154.76

 Zero-point correction=                           0.227560 (Hartree/Particle)
 Thermal correction to Energy=                    0.239273
 Thermal correction to Enthalpy=                  0.240217
 Thermal correction to Gibbs Free Energy=         0.188949
 Sum of electronic and zero-point Energies=           -557.814000
 Sum of electronic and thermal Energies=              -557.802287
 Sum of electronic and thermal Enthalpies=            -557.801343
 Sum of electronic and thermal Free Energies=         -557.852611

                     E (Thermal)             CV                S
                      KCal/Mol        Cal/Mol-Kelvin    Cal/Mol-Kelvin
 Total                  150.146             46.401            107.901
 Electronic               0.000              0.000              0.000
 Translational            0.889              2.981             41.521
 Rotational               0.889              2.981             31.694
 Vibrational            148.368             40.439             34.687
 Vibration     1          0.595              1.980              5.099
 Vibration     2          0.598              1.970              4.255
 Vibration     3          0.599              1.964              3.939
 Vibration     4          0.605              1.944              3.334
 Vibration     5          0.621              1.892              2.556
 Vibration     6          0.658              1.776              1.789
 Vibration     7          0.668              1.746              1.662
 Vibration     8          0.689              1.684              1.449
 Vibration     9          0.710              1.624              1.282
 Vibration    10          0.778              1.437              0.909
 Vibration    11          0.780              1.433              0.902
 Vibration    12          0.787              1.416              0.876
 Vibration    13          0.806              1.368              0.805
 Vibration    14          0.873              1.210              0.615
 Vibration    15          0.915              1.119              0.525
 Vibration    16          0.960              1.028              0.446

 Optimization completed.
    -- Stationary point found.
 Normal termination of Gaussian 16 at Mon Feb 21 19:38:46 2022.

 ----------------------------------------------------------------------
 # M062X/def2tzvp int=(grid=ultrafine) pop=nbo7 polar prop=efg volume g
 uess=read geom=check
 ----------------------------------------------------------------------

 ------
 N4.xyz
 ------
 Structure from the checkpoint file:  "N4_conf-1.chk"
 Charge =  0 Multiplicity = 1

 SCF Done:  E(RM062X) =  -557.925292772     A.U. after   12 cycles

  Exact polarizability:     241.624       1.736     146.471      -3.956       2.264      96.071
 Approx polarizability:     258.039       1.318     213.195      -5.966       4.098     135.053

 Summary of Natural Population Analysis:

                                     Natural Population
             Natural    ---------------------------------------------
  Atom No    Charge        Core      Valence    Rydberg      Total
 --------------------------------------------------------------------
    N  1   -0.82963      1.99999     5.80540    0.02423     7.82963
    C  2   -0.23169      1.99999     4.21847    0.01323     6.23169
    C  3   -0.03504      1.99999     4.01756    0.01749     6.03504
    C  4   -0.20597      1.99999     4.18945    0.01652     6.20597
    C  5   -0.19167      1.99999     4.17636    0.01532     6.19167
    C  6   -0.05443      1.99999     4.03625    0.01819     6.05443
    C  7   -0.04450      1.99999     4.02611    0.01839     6.04450
    C  8   -0.20083      1.99999     4.18524    0.01560     6.20083
    C  9   -0.20698      1.99999     4.19058    0.01641     6.20698
    C 10   -0.21646      1.99999     4.19995    0.01652     6.21646
    C 11   -0.20670      1.99999     4.19030    0.01640     6.20670
    C 12   -0.20018      1.99999     4.18459    0.01560     6.20018
    C 13   -0.19414      1.99999     4.17872    0.01543     6.19414
    C 14   -0.20719      1.99999     4.19085    0.01636     6.20719
    H 15    0.35324      0.00000     0.64473    0.00203     0.64676
    H 16    0.35798      0.00000     0.64047    0.00155     0.64202
    H 17    0.20055      0.00000     0.79742    0.00204     0.79945
    H 18    0.17055      0.00000     0.82739    0.00206     0.82945
    H 19    0.23364      0.00000     0.76482    0.00154     0.76636
    H 20    0.21392      0.00000     0.78470    0.00139     0.78608
    H 21    0.21415      0.00000     0.78447    0.00137     0.78585
    H 22    0.21407      0.00000     0.78474    0.00119     0.78593
    H 23    0.21437      0.00000     0.78451    0.00112     0.78563
    H 24    0.21429      0.00000     0.78452    0.00119     0.78571
    H 25    0.21504      0.00000     0.78359    0.00136     0.78496
    H 26    0.21405      0.00000     0.78456    0.00139     0.78595
    H 27    0.20955      0.00000     0.78890    0.00155     0.79045
 ====================================================================
 * Total *  0.00000     27.99989    69.74464    0.25546    98.00000

 1\1\GINC-NOTCH241\SP\RM062X\def2TZVP\C13H13N1\U6032257\21-Feb-2022\0\\
 # M062X/def2tzvp int=(grid=ultrafine) pop=nbo7 polar prop=efg volume g
 uess=read geom=check\\N4.xyz\\0,1\N,0,4.6694347972,-0.5307078974,0.546
 188138\C,0,3.9586417423,0.0383583746,-0.602087392\C,0,2.4608029226,0.0
 439306712,-0.3812039357\C,0,1.834584991,-0.9859465912,0.3303074716\C,0
 ,0.4542816419,-0.9912494571,0.5047809364\C,0,-0.3496451726,0.029354914
 6,-0.0279293295\C,0,-1.8192945576,0.0211450828,0.1587537071\C,0,-2.526
 8140707,1.2154436526,0.3692340137\C,0,-3.9089887925,1.2074260466,0.542

 Normal termination of Gaussian 16 at Mon Feb 21 19:41:16 2022.
 Gaussian 16:  ES64L-G16RevC.01  3-Jul-2019

 --------------------------------------------------------------------
 # M062X/def2tzvp int=(grid=ultrafine) nmr=giao guess=read geom=check
 --------------------------------------------------------------------

 ------
 N4.xyz
 ------
 Structure from the checkpoint file:  "N4_conf-1.chk"
 Charge =  0 Multiplicity = 1

                         Standard orientation:
 ---------------------------------------------------------------------
 Center     Atomic      Atomic             Coordinates (Angstroms)
 Number     Number       Type             X           Y           Z
 ---------------------------------------------------------------------
      1          7           0        4.809371   -0.622704    0.672685
      2          6           0        4.166577    0.247311   -0.315996
      3          6           0        2.657350    0.186777   -0.211547
      4          6           0        2.007084   -1.004008    0.132299
      5          6           0        0.618522   -1.061550    0.197789
      6          6           0       -0.169695    0.066553   -0.081157
      7          6           0       -1.648143    0.002569   -0.011277
      8          6           0       -2.395244    1.086526    0.476691
      9          6           0       -3.785541    1.026670    0.540292
     10          6           0       -4.459654   -0.120458    0.119790
     11          6           0       -3.730003   -1.206199   -0.366022
     12          6           0       -2.339926   -1.144520   -0.431913
     13          6           0        0.487829    1.257687   -0.423103
     14          6           0        1.877656    1.315536   -0.481140
     15          1           0        4.623710   -0.269484    1.608622
     16          1           0        5.817730   -0.605495    0.545848
     17          1           0        4.472295   -0.111036   -1.308735
     18          1           0        4.478967    1.304622   -0.264534
     19          1           0        2.608535   -1.875680    0.366533
     20          1           0        0.134779   -1.986941    0.494991
     21          1           0       -1.877078    1.971566    0.832198
     22          1           0       -4.343021    1.874024    0.928284
     23          1           0       -5.543064   -0.167913    0.170350
     24          1           0       -4.245041   -2.100602   -0.703769
     25          1           0       -1.781607   -1.982641   -0.836786
     26          1           0       -0.096810    2.140339   -0.662765
     27          1           0        2.364143    2.250795   -0.747282
 ---------------------------------------------------------------------

 SCF Done:  E(RM062X) =  -557.925292772     A.U. after    1 cycles

      1  N    Isotropic =   228.4099   Anisotropy =    40.4559

      2  C    Isotropic =   134.9825   Anisotropy =    28.8538

      3  C    Isotropic =    18.5283   Anisotropy =   226.3393

      4  C    Isotropic =    35.3494   Anisotropy =   221.3457

      5  C    Isotropic =    35.6648   Anisotropy =   199.3302

      6  C    Isotropic =    20.0667   Anisotropy =   220.2673

      7  C    Isotropic =    18.5325   Anisotropy =   226.1205

      8  C    Isotropic =    36.2551   Anisotropy =   200.8258

      9  C    Isotropic =    35.0068   Anisotropy =   215.1999

     10  C    Isotropic =    36.5266   Anisotropy =   213.9789

     11  C    Isotropic =    34.8829   Anisotropy =   215.3492

     12  C    Isotropic =    36.0084   Anisotropy =   201.3022

     13  C    Isotropic =    37.0823   Anisotropy =   196.5038

     14  C    Isotropic =    36.2091   Anisotropy =   191.2317

     15  H    Isotropic =    31.4728   Anisotropy =    11.1297

     16  H    Isotropic =    31.0676   Anisotropy =    15.2273

     17  H    Isotropic =    27.8337   Anisotropy =     5.6154

     18  H    Isotropic =    27.7057   Anisotropy =     8.5146

     19  H    Isotropic =    22.8479   Anisotropy =    10.7159

     20  H    Isotropic =    23.4077   Anisotropy =     9.8038

     21  H    Isotropic =    23.4211   Anisotropy =     9.9133

     22  H    Isotropic =    23.6541   Anisotropy =     6.4396

     23  H    Isotropic =    23.8109   Anisotropy =     5.7952

     24  H    Isotropic =    23.6489   Anisotropy =     6.4313

     25  H    Isotropic =    23.3746   Anisotropy =     9.9299

     26  H    Isotropic =    23.5494   Anisotropy =     9.4160

     27  H    Isotropic =    23.8912   Anisotropy =     8.1190

 The electronic state is 1-A.
 Alpha  occ. eigenvalues --  -14.73221 -10.56773 -10.55259 -10.55010 -10.54658
 Alpha  occ. eigenvalues --  -10.54284 -10.54263 -10.54168 -10.54150 -10.54131
 Alpha  occ. eigenvalues --  -10.54120 -10.54018 -10.53981 -10.53503  -0.99758
 Alpha  occ. eigenvalues --   -0.97078  -0.94691  -0.87760  -0.84470  -0.83624
 Alpha  occ. eigenvalues --   -0.82344  -0.75314  -0.70212  -0.68902  -0.67281
 Alpha  occ. eigenvalues --   -0.64840  -0.60408  -0.57664  -0.55096  -0.54739
 Alpha  occ. eigenvalues --   -0.52832  -0.51426  -0.50774  -0.48927  -0.48502
 Alpha  occ. eigenvalues --   -0.48176  -0.47824  -0.46437  -0.44257  -0.42218
 Alpha  occ. eigenvalues --   -0.41591  -0.40752  -0.39048  -0.38882  -0.33176
 Alpha  occ. eigenvalues --   -0.31504  -0.30779  -0.30570  -0.27148
 Alpha virt. eigenvalues --   -0.00518   0.01765   0.02393   0.05083   0.06638
 Alpha virt. eigenvalues --    0.08532   0.09444   0.10215   0.10694   0.11672
 Alpha virt. eigenvalues --    0.12501   0.12761   0.13555   0.14642   0.15831

 Mulliken charges:
               1
     1  N   -0.565621
     2  C   -0.176365
     3  C    0.036307
     4  C   -0.178019
     5  C   -0.191079
     6  C    0.098857
     7  C    0.114385
     8  C   -0.214173
     9  C   -0.150535
    10  C   -0.152186
    11  C   -0.150243
    12  C   -0.213831
    13  C   -0.211287
    14  C   -0.188749
    15  H    0.237785
    16  H    0.231864
    17  H    0.145748
    18  H    0.126878
    19  H    0.171820
    20  H    0.164680
    21  H    0.163916
    22  H    0.142688
    23  H    0.142734
    24  H    0.143073
    25  H    0.165992
    26  H    0.163070
    27  H    0.142292
 Sum of Mulliken charges =  -0.00000

 Dipole moment (field-independent basis, Debye):
    X=              1.0958    Y=              1.0052    Z=              0.2035  Tot=              1.5009
 Quadrupole moment (field-independent basis, Debye-Ang):
   XX=            -66.3035   YY=            -78.7596   ZZ=            -86.3985
   XY=              4.6734   XZ=              0.5683   YZ=              1.8112

 1\1\GINC-NOTCH241\SP\RM062X\def2TZVP\C13H13N1\U6032257\21-Feb-2022\0\\
 # M062X/def2tzvp int=(grid=ultrafine) nmr=giao guess=read geom=check\\
 N4.xyz\\0,1\N,0,4.6694347972,-0.5307078974,0.546188138\C,0,3.958641742
 3,0.0383583746,-0.602087392\C,0,2.4608029226,0.0439306712,-0.381203935
 7\C,0,1.834584991,-0.9859465912,0.3303074716\C,0,0.4542816419,-0.99124
 94571,0.5047809364\C,0,-0.3496451726,0.0293549146,-0.0279293295\C,0,-1
 .8192945576,0.0211450828,0.1587537071\C,0,-2.5268140707,1.2154436526,0
 .3692340137\C,0,-3.9089887925,1.2074260466,0.5426761573\C,0,-4.6142069

 Normal termination of Gaussian 16 at Mon Feb 21 19:42:11 2022.
