 Gaussian 16, Revision C.01,

 ----------------------------------------------------------------------
 # B3LYP/6-31G(d,p) empiricaldispersion=GD3BJ int=(grid=ultrafine) opt
 freq=noraman
 ----------------------------------------------------------------------

 ------
 N4.xyz
 ------
 Symbolic Z-matrix:
 Charge =  0 Multiplicity = 1

 SCF Done:  E(RB3LYP) =  -558.038943580     A.U. after   13 cycles
 SCF Done:  E(RB3LYP) =  -558.041707234     A.U. after   11 cycles
 SCF Done:  E(RB3LYP) =  -558.041827698     A.U. after   10 cycles
 SCF Done:  E(RB3LYP) =  -558.041842042     A.U. after    9 cycles
 SCF Done:  E(RB3LYP) =  -558.041843216     A.U. after    7 cycles
 SCF Done:  E(RB3LYP) =  -558.041843457     A.U. after    7 cycles
 SCF Done:  E(RB3LYP) =  -558.041843502     A.U. after    6 cycles
 SCF Done:  E(RB3LYP) =  -558.041843564     A.U. after    7 cycles
 SCF Done:  E(RB3LYP) =  -558.041843597     A.U. after    7 cycles
 SCF Done:  E(RB3LYP) =  -558.041843607     A.U. after    6 cycles
 Optimization completed.
    -- Stationary point found.
 Normal termination of Gaussian 16 at Mon Feb 21 19:30:27 2022.

 ----------------------------------------------------------------------
 #N Geom=AllCheck Guess=TCheck SCRF=Check GenChk RB3LYP/6-31G(d,p) Freq
 ----------------------------------------------------------------------

 Structure from the checkpoint file:  "N4_conf-3.chk"
 ------
 N4.xyz
 ------
 Charge =  0 Multiplicity = 1

 SCF Done:  E(RB3LYP) =  -558.041843607     A.U. after    1 cycles

                      1                      2                      3
                      A                      A                      A
 Frequencies --     37.6142                54.9743                73.9912
 Red. masses --      2.7660                 4.9906                 3.6756
 Frc consts  --      0.0023                 0.0089                 0.0119
 IR Inten    --      0.2957                 0.0361                 0.0388

                      4                      5                      6
                      A                      A                      A
 Frequencies --    108.2092               146.0814               239.1489
 Red. masses --      3.6787                 4.4557                 2.4072
 Frc consts  --      0.0254                 0.0560                 0.0811
 IR Inten    --      0.4431                 1.2908                13.3505

                      7                      8                      9
                      A                      A                      A
 Frequencies --    258.9859               299.1072               342.5210
 Red. masses --      2.2763                 4.0599                 2.3113
 Frc consts  --      0.0900                 0.2140                 0.1598
 IR Inten    --     16.2350                 4.2343                12.7662

                     10                     11                     12
                      A                      A                      A
 Frequencies --    385.8471               415.5634               422.6118
 Red. masses --      2.3928                 2.9982                 3.0513
 Frc consts  --      0.2099                 0.3051                 0.3211
 IR Inten    --      6.1269                 0.4821                 0.0315

                     13                     14                     15
                      A                      A                      A
 Frequencies --    450.6306               520.0329               560.1745
 Red. masses --      4.2426                 3.5635                 3.4701
 Frc consts  --      0.5076                 0.5678                 0.6416
 IR Inten    --      1.5891                 8.0818                 1.8693

                     16                     17                     18
                      A                      A                      A
 Frequencies --    606.7174               634.3303               658.6830
 Red. masses --      3.1358                 6.3061                 6.6650
 Frc consts  --      0.6801                 1.4950                 1.7037
 IR Inten    --     16.7027                 0.2098                 0.1806

                     19                     20                     21
                      A                      A                      A
 Frequencies --    714.5366               716.7664               750.4131
 Red. masses --      1.9962                 4.1216                 2.7483
 Frc consts  --      0.6005                 1.2476                 0.9118
 IR Inten    --     20.9022                 2.3314                28.7050

                     22                     23                     24
                      A                      A                      A
 Frequencies --    781.5802               817.5094               855.7173
 Red. masses --      2.2228                 3.9311                 1.2466
 Frc consts  --      0.8000                 1.5479                 0.5378
 IR Inten    --     21.5389                23.5528                 0.5055

                     25                     26                     27
                      A                      A                      A
 Frequencies --    858.3242               860.8622               889.0319
 Red. masses --      1.5907                 1.2636                 1.2993
 Frc consts  --      0.6905                 0.5517                 0.6051
 IR Inten    --     12.7874                 0.4612                 1.2056

                     28                     29                     30
                      A                      A                      A
 Frequencies --    927.8550               930.9308               969.7799
 Red. masses --      2.0110                 1.5281                 1.3156
 Frc consts  --      1.0200                 0.7802                 0.7290
 IR Inten    --    249.9137                39.1903                 0.2942

                     31                     32                     33
                      A                      A                      A
 Frequencies --    969.9294               975.1313               997.8931
 Red. masses --      1.3303                 1.3495                 1.2498
 Frc consts  --      0.7374                 0.7560                 0.7333
 IR Inten    --      0.1376                 0.5352                 0.0886

                     34                     35                     36
                      A                      A                      A
 Frequencies --   1019.2028              1027.7581              1048.3409
 Red. masses --      5.9907                 5.8527                 2.8079
 Frc consts  --      3.6665                 3.6424                 1.8182
 IR Inten    --      0.4507                 3.6005                 2.5797

                     37                     38                     39
                      A                      A                      A
 Frequencies --   1070.5819              1093.2429              1112.2067
 Red. masses --      1.8815                 2.5673                 1.5821
 Frc consts  --      1.2705                 1.8079                 1.1531
 IR Inten    --      0.1899                36.7079                 3.6022

                     40                     41                     42
                      A                      A                      A
 Frequencies --   1128.5712              1167.7965              1188.8051
 Red. masses --      1.3416                 1.1751                 1.0936
 Frc consts  --      1.0068                 0.9442                 0.9106
 IR Inten    --      0.8099                 4.4265                 0.0833

                     43                     44                     45
                      A                      A                      A
 Frequencies --   1209.5289              1216.1139              1235.4769
 Red. masses --      1.1254                 1.1922                 2.7495
 Frc consts  --      0.9701                 1.0389                 2.4727
 IR Inten    --      1.2094                 0.0823                 5.1904

                     46                     47                     48
                      A                      A                      A
 Frequencies --   1314.8218              1319.0676              1348.0564
 Red. masses --      2.1768                 3.3460                 1.4224
 Frc consts  --      2.2172                 3.4302                 1.5229
 IR Inten    --      2.8397                 0.1376                 0.0516

                     49                     50                     51
                      A                      A                      A
 Frequencies --   1352.4722              1368.1398              1374.0728
 Red. masses --      6.3902                 1.9792                 1.2892
 Frc consts  --      6.8869                 2.1827                 1.4341
 IR Inten    --      0.0238                 0.2671                29.3457

                     52                     53                     54
                      A                      A                      A
 Frequencies --   1396.5623              1452.2770              1493.5501
 Red. masses --      1.2449                 2.5600                 2.4007
 Frc consts  --      1.4306                 3.1812                 3.1551
 IR Inten    --      0.4778                 7.6206                 2.0849

                     55                     56                     57
                      A                      A                      A
 Frequencies --   1500.3486              1534.6598              1563.5574
 Red. masses --      1.0935                 2.1692                 2.6925
 Frc consts  --      1.4503                 3.0101                 3.8783
 IR Inten    --      1.9710                28.6931                 2.3028

                     58                     59                     60
                      A                      A                      A
 Frequencies --   1616.4340              1639.9135              1662.5678
 Red. masses --      5.6481                 6.0328                 5.6530
 Frc consts  --      8.6950                 9.5589                 9.2064
 IR Inten    --      1.8820                 0.9597                 7.0236

                     61                     62                     63
                      A                      A                      A
 Frequencies --   1670.9870              1676.4795              3049.5943
 Red. masses --      5.7008                 1.0917                 1.0596
 Frc consts  --      9.3786                 1.8079                 5.8061
 IR Inten    --      2.4256                16.1063                49.3671

                     64                     65                     66
                      A                      A                      A
 Frequencies --   3094.0503              3167.6327              3167.9934
 Red. masses --      1.1063                 1.0882                 1.0881
 Frc consts  --      6.2398                 6.4330                 6.4342
 IR Inten    --     20.3454                13.8820                24.4728

                     67                     68                     69
                      A                      A                      A
 Frequencies --   3178.9730              3185.1745              3194.3454
 Red. masses --      1.0846                 1.0876                 1.0917
 Frc consts  --      6.4582                 6.5010                 6.5632
 IR Inten    --      3.5354                 4.7993                15.0642

                     70                     71                     72
                      A                      A                      A
 Frequencies --   3195.7620              3199.5994              3202.0435
 Red. masses --      1.0929                 1.0928                 1.0937
 Frc consts  --      6.5762                 6.5912                 6.6068
 IR Inten    --      9.0342                 2.4744                41.2146

                     73                     74                     75
                      A                      A                      A
 Frequencies --   3209.7815              3473.7534              3555.3948
 Red. masses --      1.0984                 1.0496                 1.0917
 Frc consts  --      6.6678                 7.4626                 8.1305
 IR Inten    --     17.9969                 1.5008                 0.1714

 - Thermochemistry -
 -------------------
 Temperature   298.150 Kelvin.  Pressure   1.00000 Atm.
 Atom     1 has atomic number  7 and mass  14.00307

 Molecular mass:   183.10480 amu.
 Principal axes and moments of inertia in atomic units:
                           1         2         3
     Eigenvalues --   731.699595968.197986406.08392
           X            1.00000   0.00046  -0.00048
           Y           -0.00046   1.00000   0.00300
           Z            0.00048  -0.00300   1.00000
 This molecule is an asymmetric top.
 Rotational symmetry number  1.
 Warning -- assumption of classical behavior for rotation
           may cause significant error
 Rotational temperatures (Kelvin)      0.11837     0.01451     0.01352
 Rotational constants (GHZ):           2.46651     0.30239     0.28172
 Zero-point vibrational energy     597577.6 (Joules/Mol)
                                  142.82448 (Kcal/Mol)
 Warning -- explicit consideration of  16 degrees of freedom as
           vibrations may cause significant error
 Vibrational temperatures:     54.12    79.10   106.46   155.69   210.18
          (Kelvin)            344.08   372.62   430.35   492.81   555.15
                              597.90   608.04   648.36   748.21   805.97
                              872.93   912.66   947.70  1028.06  1031.27
                             1079.68  1124.52  1176.21  1231.19  1234.94
                             1238.59  1279.12  1334.98  1339.40  1395.30
                             1395.51  1403.00  1435.75  1466.41  1478.71
                             1508.33  1540.33  1572.93  1600.22  1623.76
                             1680.20  1710.43  1740.24  1749.72  1777.58
                             1891.74  1897.84  1939.55  1945.91  1968.45
                             1976.98  2009.34  2089.50  2148.89  2158.67
                             2208.03  2249.61  2325.69  2359.47  2392.06
                             2404.18  2412.08  4387.69  4451.65  4557.52
                             4558.04  4573.83  4582.76  4595.95  4597.99
                             4603.51  4607.03  4618.16  4997.96  5115.42

 Zero-point correction=                           0.227605 (Hartree/Particle)
 Thermal correction to Energy=                    0.239384
 Thermal correction to Enthalpy=                  0.240328
 Thermal correction to Gibbs Free Energy=         0.188627
 Sum of electronic and zero-point Energies=           -557.814238
 Sum of electronic and thermal Energies=              -557.802460
 Sum of electronic and thermal Enthalpies=            -557.801516
 Sum of electronic and thermal Free Energies=         -557.853216

                     E (Thermal)             CV                S
                      KCal/Mol        Cal/Mol-Kelvin    Cal/Mol-Kelvin
 Total                  150.216             46.440            108.813
 Electronic               0.000              0.000              0.000
 Translational            0.889              2.981             41.521
 Rotational               0.889              2.981             31.704
 Vibrational            148.438             40.479             35.589
 Vibration     1          0.594              1.982              5.381
 Vibration     2          0.596              1.976              4.630
 Vibration     3          0.599              1.966              4.044
 Vibration     4          0.606              1.943              3.301
 Vibration     5          0.617              1.907              2.723
 Vibration     6          0.657              1.781              1.809
 Vibration     7          0.668              1.748              1.669
 Vibration     8          0.692              1.675              1.422
 Vibration     9          0.722              1.590              1.200
 Vibration    10          0.755              1.500              1.016
 Vibration    11          0.779              1.436              0.907
 Vibration    12          0.785              1.421              0.883
 Vibration    13          0.809              1.359              0.794
 Vibration    14          0.875              1.206              0.610
 Vibration    15          0.916              1.117              0.523
 Vibration    16          0.965              1.018              0.438

 Optimization completed.
    -- Stationary point found.
 Normal termination of Gaussian 16 at Mon Feb 21 19:31:11 2022.

 ----------------------------------------------------------------------
 # M062X/def2tzvp int=(grid=ultrafine) pop=nbo7 polar prop=efg volume g
 uess=read geom=check
 ----------------------------------------------------------------------

 ------
 N4.xyz
 ------
 Structure from the checkpoint file:  "N4_conf-3.chk"
 Charge =  0 Multiplicity = 1

 SCF Done:  E(RM062X) =  -557.924915720     A.U. after   11 cycles

  Exact polarizability:     240.630      -0.415     146.920       3.583       1.215      97.250
 Approx polarizability:     257.699      -0.612     214.674       5.958       3.862     136.016

 Summary of Natural Population Analysis:

                                     Natural Population
             Natural    ---------------------------------------------
  Atom No    Charge        Core      Valence    Rydberg      Total
 --------------------------------------------------------------------
    N  1   -0.80814      1.99999     5.78363    0.02452     7.80814
    C  2   -0.23778      1.99999     4.22227    0.01552     6.23778
    C  3   -0.04058      1.99999     4.02382    0.01676     6.04058
    C  4   -0.20997      1.99999     4.19333    0.01664     6.20997
    C  5   -0.19164      1.99999     4.17610    0.01554     6.19164
    C  6   -0.05167      1.99999     4.03346    0.01822     6.05167
    C  7   -0.04665      1.99999     4.02829    0.01837     6.04665
    C  8   -0.20008      1.99999     4.18452    0.01557     6.20008
    C  9   -0.20629      1.99999     4.18990    0.01639     6.20629
    C 10   -0.21481      1.99999     4.19833    0.01648     6.21481
    C 11   -0.20616      1.99999     4.18978    0.01639     6.20616
    C 12   -0.19994      1.99999     4.18438    0.01557     6.19994
    C 13   -0.19180      1.99999     4.17624    0.01557     6.19180
    C 14   -0.21025      1.99999     4.19358    0.01667     6.21025
    H 15    0.34846      0.00000     0.64963    0.00191     0.65154
    H 16    0.34831      0.00000     0.64978    0.00191     0.65169
    H 17    0.19616      0.00000     0.80195    0.00189     0.80384
    H 18    0.19635      0.00000     0.80175    0.00189     0.80365
    H 19    0.21077      0.00000     0.78771    0.00152     0.78923
    H 20    0.21533      0.00000     0.78327    0.00140     0.78467
    H 21    0.21448      0.00000     0.78415    0.00137     0.78552
    H 22    0.21489      0.00000     0.78392    0.00119     0.78511
    H 23    0.21512      0.00000     0.78377    0.00111     0.78488
    H 24    0.21495      0.00000     0.78387    0.00119     0.78505
    H 25    0.21473      0.00000     0.78390    0.00136     0.78527
    H 26    0.21544      0.00000     0.78316    0.00140     0.78456
    H 27    0.21076      0.00000     0.78772    0.00152     0.78924
 ====================================================================
 * Total *  0.00000     27.99989    69.74222    0.25789    98.00000

 1\1\GINC-NOTCH318\SP\RM062X\def2TZVP\C13H13N1\U6032257\21-Feb-2022\0\\
 # M062X/def2tzvp int=(grid=ultrafine) pop=nbo7 polar prop=efg volume g
 uess=read geom=check\\N4.xyz\\0,1\N,0,4.690155435,0.3892961522,0.55567
 87329\C,0,3.9533140602,-0.2343245858,-0.5570758759\C,0,2.4448872367,-0
 .2005296231,-0.4220423369\C,0,1.7571150143,-1.2279915413,0.2343969273\
 C,0,0.3799987617,-1.1639629295,0.4251211349\C,0,-0.3623977322,-0.06708
 72465,-0.0394988808\C,0,-1.8288434478,0.0021559012,0.1584860273\C,0,-2
 .4601026896,1.2238032804,0.4416031392\C,0,-3.8390974508,1.2901195421,0

 Normal termination of Gaussian 16 at Mon Feb 21 19:33:42 2022.
 Gaussian 16:  ES64L-G16RevC.01  3-Jul-2019

 --------------------------------------------------------------------
 # M062X/def2tzvp int=(grid=ultrafine) nmr=giao guess=read geom=check
 --------------------------------------------------------------------

 ------
 N4.xyz
 ------
 Structure from the checkpoint file:  "N4_conf-3.chk"
 Charge =  0 Multiplicity = 1

                         Standard orientation:
 ---------------------------------------------------------------------
 Center     Atomic      Atomic             Coordinates (Angstroms)
 Number     Number       Type             X           Y           Z
 ---------------------------------------------------------------------
      1          7           0       -4.834560   -0.352811    0.887784
      2          6           0       -4.185383    0.148567   -0.335837
      3          6           0       -2.670901    0.132922   -0.307081
      4          6           0       -1.948294    1.226826    0.183667
      5          6           0       -0.560499    1.186849    0.280367
      6          6           0        0.157736    0.047851   -0.115842
      7          6           0        1.635199    0.003674   -0.017823
      8          6           0        2.297260   -1.178821    0.348846
      9          6           0        3.686577   -1.221636    0.440451
     10          6           0        4.444134   -0.081514    0.169584
     11          6           0        3.799339    1.101063   -0.195011
     12          6           0        2.410136    1.142561   -0.288852
     13          6           0       -0.567314   -1.046462   -0.613409
     14          6           0       -1.955098   -1.002203   -0.706209
     15          1           0       -4.502770    0.194852    1.680333
     16          1           0       -4.507462   -1.301385    1.064851
     17          1           0       -4.542640    1.170102   -0.505992
     18          1           0       -4.546493   -0.456891   -1.174428
     19          1           0       -2.482079    2.120232    0.499350
     20          1           0       -0.024970    2.039349    0.686306
     21          1           0        1.713874   -2.062303    0.588270
     22          1           0        4.177938   -2.144674    0.733246
     23          1           0        5.526809   -0.114327    0.241777
     24          1           0        4.379977    1.991513   -0.416621
     25          1           0        1.918225    2.058425   -0.600834
     26          1           0       -0.032893   -1.925735   -0.959237
     27          1           0       -2.492943   -1.857542   -1.108616
 ---------------------------------------------------------------------

 SCF Done:  E(RM062X) =  -557.924915720     A.U. after    1 cycles

      1  N    Isotropic =   204.2601   Anisotropy =    39.9968

      2  C    Isotropic =   132.6000   Anisotropy =    27.3172

      3  C    Isotropic =    12.8636   Anisotropy =   242.4643

      4  C    Isotropic =    35.5801   Anisotropy =   194.7709

      5  C    Isotropic =    35.2238   Anisotropy =   199.4181

      6  C    Isotropic =    20.1825   Anisotropy =   222.9160

      7  C    Isotropic =    18.9272   Anisotropy =   225.2171

      8  C    Isotropic =    36.1772   Anisotropy =   200.9681

      9  C    Isotropic =    34.7844   Anisotropy =   215.8000

     10  C    Isotropic =    36.3176   Anisotropy =   215.5304

     11  C    Isotropic =    34.5236   Anisotropy =   214.9765

     12  C    Isotropic =    35.9821   Anisotropy =   200.8840

     13  C    Isotropic =    35.1626   Anisotropy =   199.5850

     14  C    Isotropic =    35.4346   Anisotropy =   194.9522

     15  H    Isotropic =    31.4223   Anisotropy =    10.2815

     16  H    Isotropic =    31.4081   Anisotropy =    10.6128

     17  H    Isotropic =    28.1605   Anisotropy =     5.9767

     18  H    Isotropic =    28.1695   Anisotropy =     5.7857

     19  H    Isotropic =    23.7815   Anisotropy =     8.3505

     20  H    Isotropic =    23.4525   Anisotropy =     9.6353

     21  H    Isotropic =    23.4027   Anisotropy =     9.8917

     22  H    Isotropic =    23.6389   Anisotropy =     6.4699

     23  H    Isotropic =    23.7992   Anisotropy =     5.8058

     24  H    Isotropic =    23.6189   Anisotropy =     6.4703

     25  H    Isotropic =    23.4258   Anisotropy =     9.9227

     26  H    Isotropic =    23.4553   Anisotropy =     9.5850

     27  H    Isotropic =    23.7707   Anisotropy =     8.3052

 The electronic state is 1-A.
 Alpha  occ. eigenvalues --  -14.73025 -10.56557 -10.55709 -10.55650 -10.55026
 Alpha  occ. eigenvalues --  -10.54746 -10.54740 -10.54663 -10.54650 -10.54614
 Alpha  occ. eigenvalues --  -10.54607 -10.54575 -10.54563 -10.54501  -0.99607
 Alpha  occ. eigenvalues --   -0.97510  -0.95146  -0.88155  -0.85037  -0.84204
 Alpha  occ. eigenvalues --   -0.82643  -0.75514  -0.70795  -0.69444  -0.67848
 Alpha  occ. eigenvalues --   -0.65557  -0.60859  -0.57153  -0.56646  -0.54466
 Alpha  occ. eigenvalues --   -0.53258  -0.51372  -0.50679  -0.49509  -0.49432
 Alpha  occ. eigenvalues --   -0.48702  -0.48479  -0.45164  -0.43935  -0.43204
 Alpha  occ. eigenvalues --   -0.42610  -0.40931  -0.40099  -0.39288  -0.33865
 Alpha  occ. eigenvalues --   -0.31544  -0.31344  -0.31148  -0.27588
 Alpha virt. eigenvalues --   -0.01054   0.01169   0.01877   0.04775   0.06472
 Alpha virt. eigenvalues --    0.08197   0.09013   0.09438   0.10527   0.10683
 Alpha virt. eigenvalues --    0.12379   0.12590   0.13883   0.14590   0.15391

 Mulliken charges:
               1
     1  N   -0.512027
     2  C   -0.255423
     3  C    0.062291
     4  C   -0.184362
     5  C   -0.206561
     6  C    0.096177
     7  C    0.117179
     8  C   -0.214066
     9  C   -0.150209
    10  C   -0.151535
    11  C   -0.150066
    12  C   -0.213615
    13  C   -0.204898
    14  C   -0.188278
    15  H    0.225850
    16  H    0.225653
    17  H    0.151716
    18  H    0.152343
    19  H    0.151699
    20  H    0.166018
    21  H    0.165294
    22  H    0.144020
    23  H    0.143996
    24  H    0.144103
    25  H    0.165634
    26  H    0.167195
    27  H    0.151873
 Sum of Mulliken charges =  -0.00000

 Dipole moment (field-independent basis, Debye):
    X=              1.3333    Y=             -0.0767    Z=              0.1839  Tot=              1.3481
 Quadrupole moment (field-independent basis, Debye-Ang):
   XX=            -88.8827   YY=            -74.4822   ZZ=            -86.4903
   XY=             -0.2342   XZ=              1.4075   YZ=              0.4912

 1\1\GINC-NOTCH318\SP\RM062X\def2TZVP\C13H13N1\U6032257\21-Feb-2022\0\\
 # M062X/def2tzvp int=(grid=ultrafine) nmr=giao guess=read geom=check\\
 N4.xyz\\0,1\N,0,4.690155435,0.3892961522,0.5556787329\C,0,3.9533140602
 ,-0.2343245858,-0.5570758759\C,0,2.4448872367,-0.2005296231,-0.4220423
 369\C,0,1.7571150143,-1.2279915413,0.2343969273\C,0,0.3799987617,-1.16
 39629295,0.4251211349\C,0,-0.3623977322,-0.0670872465,-0.0394988808\C,
 0,-1.8288434478,0.0021559012,0.1584860273\C,0,-2.4601026896,1.22380328
 04,0.4416031392\C,0,-3.8390974508,1.2901195421,0.6270770846\C,0,-4.616

 Normal termination of Gaussian 16 at Mon Feb 21 19:34:37 2022.
