 Gaussian 16, Revision C.01,

 ----------------------------------------------------------------------
 # B3LYP/6-31G(d,p) empiricaldispersion=GD3BJ int=(grid=ultrafine) opt
 freq=noraman
 ----------------------------------------------------------------------

 ------
 N4.xyz
 ------
 Symbolic Z-matrix:
 Charge =  0 Multiplicity = 1

 SCF Done:  E(RB3LYP) =  -558.038931880     A.U. after   14 cycles
 SCF Done:  E(RB3LYP) =  -558.041117722     A.U. after   11 cycles
 SCF Done:  E(RB3LYP) =  -558.041424138     A.U. after   11 cycles
 SCF Done:  E(RB3LYP) =  -558.041552120     A.U. after   11 cycles
 SCF Done:  E(RB3LYP) =  -558.041596001     A.U. after   10 cycles
 SCF Done:  E(RB3LYP) =  -558.041610721     A.U. after    9 cycles
 SCF Done:  E(RB3LYP) =  -558.041612896     A.U. after    8 cycles
 SCF Done:  E(RB3LYP) =  -558.041613174     A.U. after    7 cycles
 SCF Done:  E(RB3LYP) =  -558.041613297     A.U. after    7 cycles
 Optimization completed.
    -- Stationary point found.
 Normal termination of Gaussian 16 at Mon Feb 21 19:30:18 2022.

 ----------------------------------------------------------------------
 #N Geom=AllCheck Guess=TCheck SCRF=Check GenChk RB3LYP/6-31G(d,p) Freq
 ----------------------------------------------------------------------

 Structure from the checkpoint file:  "N4_conf-2.chk"
 ------
 N4.xyz
 ------
 Charge =  0 Multiplicity = 1

 SCF Done:  E(RB3LYP) =  -558.041613297     A.U. after    1 cycles

                      1                      2                      3
                      A                      A                      A
 Frequencies --     43.4142                67.5223                79.2566
 Red. masses --      3.7458                 3.3288                 3.3191
 Frc consts  --      0.0042                 0.0089                 0.0123
 IR Inten    --      0.7542                 1.8361                 1.5784

                      4                      5                      6
                      A                      A                      A
 Frequencies --     98.8711               174.4352               217.5135
 Red. masses --      4.3598                 2.9313                 4.0485
 Frc consts  --      0.0251                 0.0526                 0.1129
 IR Inten    --      0.3032                 4.0239                 0.8271

                      7                      8                      9
                      A                      A                      A
 Frequencies --    276.7215               283.9684               347.0089
 Red. masses --      1.4797                 3.7741                 3.3776
 Frc consts  --      0.0668                 0.1793                 0.2396
 IR Inten    --     47.9495                 8.7009                 1.7032

                     10                     11                     12
                      A                      A                      A
 Frequencies --    386.6259               417.0826               424.8100
 Red. masses --      3.2789                 3.0128                 3.0781
 Frc consts  --      0.2888                 0.3088                 0.3273
 IR Inten    --     13.5310                 0.2045                 0.0854

                     13                     14                     15
                      A                      A                      A
 Frequencies --    470.6763               509.5885               559.2112
 Red. masses --      4.4856                 3.3386                 3.0869
 Frc consts  --      0.5855                 0.5108                 0.5687
 IR Inten    --      8.2677                 6.8929                 2.0364

                     16                     17                     18
                      A                      A                      A
 Frequencies --    600.7493               634.1044               657.4940
 Red. masses --      3.8909                 6.4101                 6.8637
 Frc consts  --      0.8273                 1.5186                 1.7482
 IR Inten    --      3.1013                 0.0154                 0.0450

                     19                     20                     21
                      A                      A                      A
 Frequencies --    714.3082               715.5326               739.5465
 Red. masses --      2.4228                 2.8573                 3.2943
 Frc consts  --      0.7284                 0.8619                 1.0616
 IR Inten    --     17.1555                 7.2259                12.2133

                     22                     23                     24
                      A                      A                      A
 Frequencies --    776.0228               817.1153               838.1109
 Red. masses --      1.8099                 4.0832                 1.3909
 Frc consts  --      0.6422                 1.6063                 0.5756
 IR Inten    --     37.9378                 6.2887                66.2846

                     25                     26                     27
                      A                      A                      A
 Frequencies --    860.4847               864.3999               871.4942
 Red. masses --      1.2489                 1.2600                 1.4490
 Frc consts  --      0.5448                 0.5547                 0.6484
 IR Inten    --      0.4211                17.6292                50.8544

                     28                     29                     30
                      A                      A                      A
 Frequencies --    930.3894               967.5339               974.3730
 Red. masses --      1.4219                 1.3142                 1.3473
 Frc consts  --      0.7252                 0.7248                 0.7537
 IR Inten    --      0.5065                 1.7477                 0.5601

                     31                     32                     33
                      A                      A                      A
 Frequencies --    987.6909               996.9414              1005.1117
 Red. masses --      1.3261                 1.2509                 1.6617
 Frc consts  --      0.7622                 0.7325                 0.9891
 IR Inten    --      4.5391                 0.4404                16.2768

                     34                     35                     36
                      A                      A                      A
 Frequencies --   1019.1187              1027.9343              1046.8792
 Red. masses --      5.9818                 5.7963                 2.9750
 Frc consts  --      3.6604                 3.6086                 1.9210
 IR Inten    --      0.9866                 7.2510                 0.5071

                     37                     38                     39
                      A                      A                      A
 Frequencies --   1067.8565              1073.6249              1111.8820
 Red. masses --      2.2741                 2.1043                 1.5737
 Frc consts  --      1.5279                 1.4291                 1.1463
 IR Inten    --      6.0360                 1.8507                 3.3289

                     40                     41                     42
                      A                      A                      A
 Frequencies --   1143.4168              1176.1249              1188.3907
 Red. masses --      1.3401                 1.2746                 1.0934
 Frc consts  --      1.0323                 1.0388                 0.9098
 IR Inten    --      2.9982                11.5260                 0.0673

                     43                     44                     45
                      A                      A                      A
 Frequencies --   1206.9428              1213.5623              1240.3317
 Red. masses --      1.1350                 1.1663                 2.2247
 Frc consts  --      0.9741                 1.0120                 2.0165
 IR Inten    --      0.4267                 0.2273                 0.6747

                     46                     47                     48
                      A                      A                      A
 Frequencies --   1300.3105              1315.4363              1318.5381
 Red. masses --      1.6153                 1.8620                 3.3375
 Frc consts  --      1.6091                 1.8983                 3.4186
 IR Inten    --      4.4443                 4.1823                 0.3987

                     49                     50                     51
                      A                      A                      A
 Frequencies --   1348.7839              1357.2259              1369.7076
 Red. masses --      1.8745                 2.4070                 1.9526
 Frc consts  --      2.0092                 2.6124                 2.1584
 IR Inten    --      1.0338                 1.8043                 0.9822

                     52                     53                     54
                      A                      A                      A
 Frequencies --   1427.7916              1452.9420              1493.5462
 Red. masses --      1.6454                 2.3541                 2.3933
 Frc consts  --      1.9763                 2.9280                 3.1455
 IR Inten    --     39.4716                16.5510                 1.3538

                     55                     56                     57
                      A                      A                      A
 Frequencies --   1517.2288              1534.9350              1564.6374
 Red. masses --      1.0963                 2.1564                 2.7178
 Frc consts  --      1.4868                 2.9934                 3.9201
 IR Inten    --      3.5184                30.3744                 3.9328

                     58                     59                     60
                      A                      A                      A
 Frequencies --   1617.6857              1640.0025              1661.7867
 Red. masses --      5.5622                 5.9917                 1.5107
 Frc consts  --      8.5760                 9.4949                 2.4580
 IR Inten    --      3.2212                 0.7619                14.6423

                     61                     62                     63
                      A                      A                      A
 Frequencies --   1662.8954              1674.6657              2957.8810
 Red. masses --      2.9513                 3.9481                 1.0724
 Frc consts  --      4.8083                 6.5236                 5.5279
 IR Inten    --     24.1778                 2.1563                77.0328

                     64                     65                     66
                      A                      A                      A
 Frequencies --   3031.7476              3170.0455              3178.0095
 Red. masses --      1.0886                 1.0879                 1.0846
 Frc consts  --      5.8953                 6.4413                 6.4539
 IR Inten    --     33.3097                21.5130                 3.8984

                     67                     68                     69
                      A                      A                      A
 Frequencies --   3184.2550              3189.2328              3194.4661
 Red. masses --      1.0876                 1.0886                 1.0919
 Frc consts  --      6.4973                 6.5236                 6.5651
 IR Inten    --      6.2489                 8.3190                13.4706

                     70                     71                     72
                      A                      A                      A
 Frequencies --   3197.9193              3201.5923              3209.0557
 Red. masses --      1.0923                 1.0937                 1.0983
 Frc consts  --      6.5813                 6.6050                 6.6641
 IR Inten    --      7.0156                39.2160                18.4063

                     73                     74                     75
                      A                      A                      A
 Frequencies --   3214.3177              3492.5873              3582.5908
 Red. masses --      1.0932                 1.0495                 1.0931
 Frc consts  --      6.6544                 7.5425                 8.2665
 IR Inten    --      4.4841                 2.4147                 0.6176

 - Thermochemistry -
 -------------------
 Temperature   298.150 Kelvin.  Pressure   1.00000 Atm.
 Atom     1 has atomic number  7 and mass  14.00307

 Molecular mass:   183.10480 amu.
 Principal axes and moments of inertia in atomic units:
                           1         2         3
     Eigenvalues --   714.484345947.279406504.17226
           X            1.00000   0.00054   0.00134
           Y           -0.00054   1.00000  -0.00239
           Z           -0.00134   0.00239   1.00000
 This molecule is an asymmetric top.
 Rotational symmetry number  1.
 Warning -- assumption of classical behavior for rotation
           may cause significant error
 Rotational temperatures (Kelvin)      0.12123     0.01456     0.01332
 Rotational constants (GHZ):           2.52594     0.30346     0.27747
 Zero-point vibrational energy     597450.9 (Joules/Mol)
                                  142.79420 (Kcal/Mol)
 Warning -- explicit consideration of  16 degrees of freedom as
           vibrations may cause significant error
 Vibrational temperatures:     62.46    97.15   114.03   142.25   250.97
          (Kelvin)            312.95   398.14   408.57   499.27   556.27
                              600.09   611.21   677.20   733.18   804.58
                              864.34   912.33   945.99  1027.73  1029.49
                             1064.04  1116.52  1175.65  1205.85  1238.05
                             1243.68  1253.89  1338.62  1392.07  1401.91
                             1421.07  1434.38  1446.13  1466.28  1478.97
                             1506.23  1536.41  1544.71  1599.75  1645.12
                             1692.18  1709.83  1736.52  1746.05  1784.56
                             1870.86  1892.62  1897.08  1940.60  1952.75
                             1970.70  2054.27  2090.46  2148.88  2182.95
                             2208.43  2251.16  2327.49  2359.60  2390.94
                             2392.54  2409.47  4255.73  4362.01  4560.99
                             4572.45  4581.43  4588.59  4596.12  4601.09
                             4606.38  4617.12  4624.69  5025.05  5154.55

 Zero-point correction=                           0.227557 (Hartree/Particle)
 Thermal correction to Energy=                    0.239271
 Thermal correction to Enthalpy=                  0.240215
 Thermal correction to Gibbs Free Energy=         0.188944
 Sum of electronic and zero-point Energies=           -557.814056
 Sum of electronic and thermal Energies=              -557.802343
 Sum of electronic and thermal Enthalpies=            -557.801399
 Sum of electronic and thermal Free Energies=         -557.852669

                     E (Thermal)             CV                S
                      KCal/Mol        Cal/Mol-Kelvin    Cal/Mol-Kelvin
 Total                  150.145             46.401            107.908
 Electronic               0.000              0.000              0.000
 Translational            0.889              2.981             41.521
 Rotational               0.889              2.981             31.692
 Vibrational            148.367             40.439             34.695
 Vibration     1          0.595              1.980              5.097
 Vibration     2          0.598              1.970              4.224
 Vibration     3          0.600              1.963              3.909
 Vibration     4          0.604              1.950              3.476
 Vibration     5          0.627              1.874              2.387
 Vibration     6          0.646              1.814              1.980
 Vibration     7          0.678              1.716              1.554
 Vibration     8          0.682              1.703              1.510
 Vibration     9          0.725              1.581              1.180
 Vibration    10          0.755              1.499              1.013
 Vibration    11          0.780              1.433              0.902
 Vibration    12          0.787              1.416              0.876
 Vibration    13          0.828              1.315              0.736
 Vibration    14          0.865              1.229              0.635
 Vibration    15          0.915              1.120              0.525
 Vibration    16          0.959              1.030              0.448

 Optimization completed.
    -- Stationary point found.
 Normal termination of Gaussian 16 at Mon Feb 21 19:31:02 2022.

 ----------------------------------------------------------------------
 # M062X/def2tzvp int=(grid=ultrafine) pop=nbo7 polar prop=efg volume g
 uess=read geom=check
 ----------------------------------------------------------------------

 ------
 N4.xyz
 ------
 Structure from the checkpoint file:  "N4_conf-2.chk"
 Charge =  0 Multiplicity = 1

 SCF Done:  E(RM062X) =  -557.925345114     A.U. after   12 cycles

  Exact polarizability:     241.919       2.383     148.499      -1.300       0.402      93.896
 Approx polarizability:     258.411       2.244     214.690      -2.531       2.124     133.424

 Summary of Natural Population Analysis:

                                     Natural Population
             Natural    ---------------------------------------------
  Atom No    Charge        Core      Valence    Rydberg      Total
 --------------------------------------------------------------------
    N  1   -0.82954      1.99999     5.80532    0.02423     7.82954
    C  2   -0.23183      1.99999     4.21860    0.01324     6.23183
    C  3   -0.03513      1.99999     4.01763    0.01751     6.03513
    C  4   -0.20535      1.99999     4.18882    0.01653     6.20535
    C  5   -0.19176      1.99999     4.17645    0.01532     6.19176
    C  6   -0.05437      1.99999     4.03620    0.01818     6.05437
    C  7   -0.04457      1.99999     4.02619    0.01840     6.04457
    C  8   -0.20032      1.99999     4.18473    0.01560     6.20032
    C  9   -0.20678      1.99999     4.19039    0.01640     6.20678
    C 10   -0.21640      1.99999     4.19989    0.01652     6.21640
    C 11   -0.20695      1.99999     4.19055    0.01640     6.20695
    C 12   -0.20059      1.99999     4.18499    0.01560     6.20059
    C 13   -0.19437      1.99999     4.17893    0.01544     6.19437
    C 14   -0.20736      1.99999     4.19100    0.01637     6.20736
    H 15    0.35789      0.00000     0.64056    0.00155     0.64211
    H 16    0.35320      0.00000     0.64477    0.00203     0.64680
    H 17    0.20057      0.00000     0.79739    0.00204     0.79943
    H 18    0.17064      0.00000     0.82730    0.00206     0.82936
    H 19    0.23341      0.00000     0.76505    0.00154     0.76659
    H 20    0.21394      0.00000     0.78467    0.00139     0.78606
    H 21    0.21483      0.00000     0.78380    0.00137     0.78517
    H 22    0.21424      0.00000     0.78457    0.00119     0.78576
    H 23    0.21438      0.00000     0.78451    0.00112     0.78562
    H 24    0.21414      0.00000     0.78467    0.00119     0.78586
    H 25    0.21442      0.00000     0.78421    0.00137     0.78558
    H 26    0.21411      0.00000     0.78450    0.00139     0.78589
    H 27    0.20956      0.00000     0.78888    0.00156     0.79044
 ====================================================================
 * Total *  0.00000     27.99989    69.74457    0.25554    98.00000

 1\1\GINC-NOTCH280\SP\RM062X\def2TZVP\C13H13N1\U6032257\21-Feb-2022\0\\
 # M062X/def2tzvp int=(grid=ultrafine) pop=nbo7 polar prop=efg volume g
 uess=read geom=check\\N4.xyz\\0,1\N,0,4.6308609818,-0.9442709225,0.192
 3320854\C,0,3.972449632,0.1861844328,-0.4681986053\C,0,2.471001295,0.1
 409965032,-0.280166017\C,0,1.7871243584,-1.0798365857,-0.2480743318\C,
 0,0.4035998082,-1.1152953649,-0.1063397343\C,0,-0.3457669061,0.0667085
 967,0.0082522714\C,0,-1.8187365169,0.0269160593,0.1606013925\C,0,-2.43
 81004776,-0.9760863185,0.9232612866\C,0,-3.8233556281,-1.0144204333,1.

 Normal termination of Gaussian 16 at Mon Feb 21 19:33:36 2022.
 Gaussian 16:  ES64L-G16RevC.01  3-Jul-2019

 --------------------------------------------------------------------
 # M062X/def2tzvp int=(grid=ultrafine) nmr=giao guess=read geom=check
 --------------------------------------------------------------------

 ------
 N4.xyz
 ------
 Structure from the checkpoint file:  "N4_conf-2.chk"
 Charge =  0 Multiplicity = 1

                         Standard orientation:
 ---------------------------------------------------------------------
 Center     Atomic      Atomic             Coordinates (Angstroms)
 Number     Number       Type             X           Y           Z
 ---------------------------------------------------------------------
      1          7           0        4.811549   -0.881754    0.179725
      2          6           0        4.164858    0.397896   -0.123625
      3          6           0        2.656259    0.283647   -0.070506
      4          6           0        2.008926   -0.885404   -0.486956
      5          6           0        0.620729   -0.974547   -0.465729
      6          6           0       -0.169948    0.100224   -0.028108
      7          6           0       -1.647927    0.002914   -0.004804
      8          6           0       -2.286241   -1.198250    0.343096
      9          6           0       -3.676084   -1.290158    0.363362
     10          6           0       -4.458758   -0.181428    0.038801
     11          6           0       -3.838039    1.019380   -0.307620
     12          6           0       -2.448155    1.109687   -0.330424
     13          6           0        0.484622    1.267920    0.391594
     14          6           0        1.874089    1.354164    0.373224
     15          1           0        5.819546   -0.791982    0.084258
     16          1           0        4.628261   -1.134393    1.148111
     17          1           0        4.468013    0.679637   -1.141513
     18          1           0        4.475911    1.232179    0.528564
     19          1           0        2.611765   -1.721421   -0.824741
     20          1           0        0.137284   -1.880690   -0.817708
     21          1           0       -1.684993   -2.057224    0.623706
     22          1           0       -4.148896   -2.227083    0.642510
     23          1           0       -5.541925   -0.252547    0.055454
     24          1           0       -4.437570    1.885832   -0.570564
     25          1           0       -1.973063    2.039018   -0.628456
     26          1           0       -0.100118    2.101368    0.768111
     27          1           0        2.358946    2.263304    0.720367
 ---------------------------------------------------------------------

 SCF Done:  E(RM062X) =  -557.925345114     A.U. after    1 cycles

      1  N    Isotropic =   228.3403   Anisotropy =    40.8579

      2  C    Isotropic =   134.8038   Anisotropy =    28.3657

      3  C    Isotropic =    18.5700   Anisotropy =   225.4082

      4  C    Isotropic =    35.3055   Anisotropy =   221.5980

      5  C    Isotropic =    35.7385   Anisotropy =   200.2130

      6  C    Isotropic =    20.1514   Anisotropy =   220.0983

      7  C    Isotropic =    18.4275   Anisotropy =   226.2111

      8  C    Isotropic =    36.1041   Anisotropy =   201.0212

      9  C    Isotropic =    34.8154   Anisotropy =   215.0277

     10  C    Isotropic =    36.7718   Anisotropy =   214.9468

     11  C    Isotropic =    34.9068   Anisotropy =   214.9420

     12  C    Isotropic =    36.0212   Anisotropy =   200.6525

     13  C    Isotropic =    37.1082   Anisotropy =   196.5837

     14  C    Isotropic =    36.2390   Anisotropy =   191.3560

     15  H    Isotropic =    31.0578   Anisotropy =    15.2524

     16  H    Isotropic =    31.4560   Anisotropy =    11.1647

     17  H    Isotropic =    27.8099   Anisotropy =     5.7408

     18  H    Isotropic =    27.7111   Anisotropy =     8.5374

     19  H    Isotropic =    22.8624   Anisotropy =    10.5800

     20  H    Isotropic =    23.3989   Anisotropy =     9.7093

     21  H    Isotropic =    23.3895   Anisotropy =     9.9508

     22  H    Isotropic =    23.6417   Anisotropy =     6.4769

     23  H    Isotropic =    23.8223   Anisotropy =     5.7848

     24  H    Isotropic =    23.6479   Anisotropy =     6.4355

     25  H    Isotropic =    23.4069   Anisotropy =     9.9237

     26  H    Isotropic =    23.5640   Anisotropy =     9.4924

     27  H    Isotropic =    23.8980   Anisotropy =     8.0585

 The electronic state is 1-A.
 Alpha  occ. eigenvalues --  -14.73218 -10.56770 -10.55258 -10.55012 -10.54657
 Alpha  occ. eigenvalues --  -10.54284 -10.54266 -10.54167 -10.54154 -10.54129
 Alpha  occ. eigenvalues --  -10.54123 -10.54017 -10.53985 -10.53514  -0.99754
 Alpha  occ. eigenvalues --   -0.97080  -0.94693  -0.87762  -0.84473  -0.83627
 Alpha  occ. eigenvalues --   -0.82345  -0.75314  -0.70215  -0.68902  -0.67283
 Alpha  occ. eigenvalues --   -0.64844  -0.60407  -0.57659  -0.55102  -0.54741
 Alpha  occ. eigenvalues --   -0.52833  -0.51420  -0.50776  -0.48922  -0.48669
 Alpha  occ. eigenvalues --   -0.48242  -0.47650  -0.46231  -0.44433  -0.42220
 Alpha  occ. eigenvalues --   -0.41571  -0.40755  -0.39067  -0.38884  -0.33098
 Alpha  occ. eigenvalues --   -0.31559  -0.30786  -0.30577  -0.27146
 Alpha virt. eigenvalues --   -0.00540   0.01773   0.02389   0.05139   0.06642
 Alpha virt. eigenvalues --    0.08536   0.09333   0.10219   0.10758   0.11755
 Alpha virt. eigenvalues --    0.12519   0.12800   0.13578   0.14663   0.15062

 Mulliken charges:
               1
     1  N   -0.564914
     2  C   -0.177313
     3  C    0.038073
     4  C   -0.181963
     5  C   -0.185277
     6  C    0.093968
     7  C    0.115783
     8  C   -0.213920
     9  C   -0.150331
    10  C   -0.151962
    11  C   -0.150498
    12  C   -0.214960
    13  C   -0.209878
    14  C   -0.190397
    15  H    0.231812
    16  H    0.237408
    17  H    0.145983
    18  H    0.126960
    19  H    0.170768
    20  H    0.165359
    21  H    0.165249
    22  H    0.142978
    23  H    0.142729
    24  H    0.142808
    25  H    0.164998
    26  H    0.164672
    27  H    0.141864
 Sum of Mulliken charges =  -0.00000

 Dipole moment (field-independent basis, Debye):
    X=              1.0910    Y=              0.7047    Z=              0.7520  Tot=              1.5008
 Quadrupole moment (field-independent basis, Debye-Ang):
   XX=            -66.2952   YY=            -78.1416   ZZ=            -87.0404
   XY=              3.1374   XZ=              3.3825   YZ=             -1.3699

 1\1\GINC-NOTCH280\SP\RM062X\def2TZVP\C13H13N1\U6032257\21-Feb-2022\0\\
 # M062X/def2tzvp int=(grid=ultrafine) nmr=giao guess=read geom=check\\
 N4.xyz\\0,1\N,0,4.6308609818,-0.9442709225,0.1923320854\C,0,3.97244963
 2,0.1861844328,-0.4681986053\C,0,2.471001295,0.1409965032,-0.280166017
 \C,0,1.7871243584,-1.0798365857,-0.2480743318\C,0,0.4035998082,-1.1152
 953649,-0.1063397343\C,0,-0.3457669061,0.0667085967,0.0082522714\C,0,-
 1.8187365169,0.0269160593,0.1606013925\C,0,-2.4381004776,-0.9760863185
 ,0.9232612866\C,0,-3.8233556281,-1.0144204333,1.0651030594\C,0,-4.6200

 Normal termination of Gaussian 16 at Mon Feb 21 19:34:32 2022.
