 Gaussian 16, Revision C.01,

 ----------------------------------------------------------------------
 # B3LYP/6-31G(d,p) empiricaldispersion=GD3BJ int=(grid=ultrafine) opt
 freq=noraman
 ----------------------------------------------------------------------

 ------
 N5.xyz
 ------
 Symbolic Z-matrix:
 Charge =  0 Multiplicity = 1

 SCF Done:  E(RB3LYP) =  -327.154218418     A.U. after   13 cycles
 SCF Done:  E(RB3LYP) =  -327.157829718     A.U. after   11 cycles
 SCF Done:  E(RB3LYP) =  -327.158310679     A.U. after   11 cycles
 SCF Done:  E(RB3LYP) =  -327.158354630     A.U. after   10 cycles
 SCF Done:  E(RB3LYP) =  -327.158357345     A.U. after    7 cycles
 Optimization completed.
    -- Stationary point found.
 Normal termination of Gaussian 16 at Mon Feb 21 19:38:33 2022.

 ----------------------------------------------------------------------
 #N Geom=AllCheck Guess=TCheck SCRF=Check GenChk RB3LYP/6-31G(d,p) Freq
 ----------------------------------------------------------------------

 Structure from the checkpoint file:  "N5_conf-1.chk"
 ------
 N5.xyz
 ------
 Charge =  0 Multiplicity = 1

 SCF Done:  E(RB3LYP) =  -327.158357345     A.U. after    1 cycles

                      1                      2                      3
                      A                      A                      A
 Frequencies --    175.7993               215.9345               273.8672
 Red. masses --      3.5812                 2.0696                 1.0637
 Frc consts  --      0.0652                 0.0569                 0.0470
 IR Inten    --      1.2151                 0.5249                36.3952

                      4                      5                      6
                      A                      A                      A
 Frequencies --    329.3170               395.4340               413.1619
 Red. masses --      2.9782                 2.0202                 1.8789
 Frc consts  --      0.1903                 0.1861                 0.1890
 IR Inten    --      8.9140                 0.4870                 1.4991

                      7                      8                      9
                      A                      A                      A
 Frequencies --    502.5789               516.0498               673.9993
 Red. masses --      2.9860                 2.8932                 2.0856
 Frc consts  --      0.4444                 0.4540                 0.5582
 IR Inten    --      1.8817                 7.3456                24.4370

                     10                     11                     12
                      A                      A                      A
 Frequencies --    803.4107               820.6782               869.8838
 Red. masses --      2.4375                 1.5954                 2.4358
 Frc consts  --      0.9270                 0.6331                 1.0860
 IR Inten    --     32.1208                 0.9336                22.9667

                     13                     14                     15
                      A                      A                      A
 Frequencies --    881.7069               889.7256              1000.1302
 Red. masses --      2.4078                 1.8805                 2.2498
 Frc consts  --      1.1028                 0.8771                 1.3259
 IR Inten    --      1.0485                69.4547                 2.6610

                     16                     17                     18
                      A                      A                      A
 Frequencies --   1020.2708              1034.9246              1048.2507
 Red. masses --      2.0413                 1.4199                 1.5750
 Frc consts  --      1.2520                 0.8960                 1.0197
 IR Inten    --     13.0780                 2.0666                 4.9856

                     19                     20                     21
                      A                      A                      A
 Frequencies --   1076.9783              1114.4071              1163.2275
 Red. masses --      2.1338                 3.4222                 2.2881
 Frc consts  --      1.4582                 2.5040                 1.8241
 IR Inten    --     11.2789                72.8652                15.0791

                     22                     23                     24
                      A                      A                      A
 Frequencies --   1202.1077              1222.0599              1281.1201
 Red. masses --      1.2443                 1.4209                 1.2174
 Frc consts  --      1.0594                 1.2502                 1.1772
 IR Inten    --      1.0343                30.7853                16.2541

                     25                     26                     27
                      A                      A                      A
 Frequencies --   1281.8683              1336.0409              1372.9163
 Red. masses --      1.2055                 1.2857                 1.3553
 Frc consts  --      1.1671                 1.3521                 1.5051
 IR Inten    --      0.6154                11.3535                 0.6194

                     28                     29                     30
                      A                      A                      A
 Frequencies --   1385.4618              1386.7402              1399.8104
 Red. masses --      1.5415                 1.3868                 1.3576
 Frc consts  --      1.7433                 1.5712                 1.5673
 IR Inten    --     16.1815                 3.4746                 8.0258

                     31                     32                     33
                      A                      A                      A
 Frequencies --   1425.4373              1441.7864              1482.6292
 Red. masses --      1.5350                 1.3440                 1.0934
 Frc consts  --      1.8377                 1.6461                 1.4162
 IR Inten    --     10.9971                 3.5792                 3.3325

                     34                     35                     36
                      A                      A                      A
 Frequencies --   1494.8338              1502.4481              1519.6527
 Red. masses --      1.0981                 1.0816                 1.1056
 Frc consts  --      1.4457                 1.4385                 1.5044
 IR Inten    --      5.9451                 0.2869                 3.3636

                     37                     38                     39
                      A                      A                      A
 Frequencies --   1663.1231              2945.2368              3013.3482
 Red. masses --      1.0947                 1.0837                 1.0665
 Frc consts  --      1.7840                 5.5384                 5.7056
 IR Inten    --     31.1895                85.9174                22.0189

                     40                     41                     42
                      A                      A                      A
 Frequencies --   3016.2458              3034.1373              3038.4585
 Red. masses --      1.0673                 1.0619                 1.0649
 Frc consts  --      5.7208                 5.7600                 5.7925
 IR Inten    --     64.7465                58.0296                20.3623

                     43                     44                     45
                      A                      A                      A
 Frequencies --   3082.4695              3086.0900              3098.9268
 Red. masses --      1.1003                 1.0991                 1.0992
 Frc consts  --      6.1599                 6.1673                 6.2192
 IR Inten    --     31.0254                39.0332                36.6749

                     46                     47                     48
                      A                      A                      A
 Frequencies --   3101.5114              3488.1242              3574.2284
 Red. masses --      1.1001                 1.0494                 1.0929
 Frc consts  --      6.2348                 7.5230                 8.2259
 IR Inten    --     62.3302                 1.8695                 0.2630

 - Thermochemistry -
 -------------------
 Temperature   298.150 Kelvin.  Pressure   1.00000 Atm.
 Atom     1 has atomic number  7 and mass  14.00307

 Molecular mass:   101.08406 amu.
 Principal axes and moments of inertia in atomic units:
                           1         2         3
     Eigenvalues --   476.78303 680.27054 890.21614
           X            0.99999   0.00000  -0.00461
           Y           -0.00000   1.00000   0.00000
           Z            0.00461  -0.00000   0.99999
 This molecule is an asymmetric top.
 Rotational symmetry number  1.
 Warning -- assumption of classical behavior for rotation
           may cause significant error
 Rotational temperatures (Kelvin)      0.18166     0.12732     0.09730
 Rotational constants (GHZ):           3.78525     2.65298     2.02731
 Zero-point vibrational energy     431233.1 (Joules/Mol)
                                  103.06719 (Kcal/Mol)
 Warning -- explicit consideration of   8 degrees of freedom as
           vibrations may cause significant error
 Vibrational temperatures:    252.94   310.68   394.03   473.81   568.94
          (Kelvin)            594.45   723.10   742.48   969.73  1155.93
                             1180.77  1251.57  1268.58  1280.12  1438.96
                             1467.94  1489.03  1508.20  1549.53  1603.38
                             1673.62  1729.56  1758.27  1843.25  1844.32
                             1922.26  1975.32  1993.37  1995.21  2014.02
                             2050.89  2074.41  2133.17  2150.73  2161.69
                             2186.44  2392.86  4237.54  4335.54  4339.70
                             4365.45  4371.66  4434.99  4440.20  4458.66
                             4462.38  5018.63  5142.52

 Zero-point correction=                           0.164248 (Hartree/Particle)
 Thermal correction to Energy=                    0.170885
 Thermal correction to Enthalpy=                  0.171829
 Thermal correction to Gibbs Free Energy=         0.134152
 Sum of electronic and zero-point Energies=           -326.994109
 Sum of electronic and thermal Energies=              -326.987473
 Sum of electronic and thermal Enthalpies=            -326.986528
 Sum of electronic and thermal Free Energies=         -327.024206

                     E (Thermal)             CV                S
                      KCal/Mol        Cal/Mol-Kelvin    Cal/Mol-Kelvin
 Total                  107.232             26.109             79.298
 Electronic               0.000              0.000              0.000
 Translational            0.889              2.981             39.750
 Rotational               0.889              2.981             27.159
 Vibrational            105.454             20.147             12.389
 Vibration     1          0.628              1.872              2.373
 Vibration     2          0.645              1.817              1.993
 Vibration     3          0.676              1.722              1.572
 Vibration     4          0.712              1.617              1.263
 Vibration     5          0.762              1.480              0.980
 Vibration     6          0.777              1.442              0.916
 Vibration     7          0.858              1.244              0.652
 Vibration     8          0.871              1.214              0.619

                           ! Non-Optimized Parameters !
 Normal termination of Gaussian 16 at Mon Feb 21 19:38:49 2022.

 ----------------------------------------------------------------------
 # M062X/def2tzvp int=(grid=ultrafine) pop=nbo7 polar prop=efg volume g
 uess=read geom=check
 ----------------------------------------------------------------------

 ------
 N5.xyz
 ------
 Structure from the checkpoint file:  "N5_conf-1.chk"
 Charge =  0 Multiplicity = 1

 SCF Done:  E(RM062X) =  -327.097570320     A.U. after   11 cycles

  Exact polarizability:      68.946      -0.000      72.372       0.340       0.000      63.733
 Approx polarizability:      78.738      -0.000      83.054       1.996       0.000      79.218

 Summary of Natural Population Analysis:

                                     Natural Population
             Natural    ---------------------------------------------
  Atom No    Charge        Core      Valence    Rydberg      Total
 --------------------------------------------------------------------
    N  1   -0.84943      1.99999     5.82458    0.02485     7.84943
    C  2   -0.04140      1.99999     4.02832    0.01309     6.04140
    C  3   -0.43070      1.99999     4.41805    0.01265     6.43070
    C  4   -0.07600      1.99999     4.05886    0.01715     6.07600
    O  5   -0.51440      2.00000     6.49256    0.02185     8.51440
    C  6   -0.07601      1.99999     4.05886    0.01715     6.07601
    C  7   -0.43070      1.99999     4.41805    0.01265     6.43070
    H  8    0.35539      0.00000     0.64283    0.00178     0.64461
    H  9    0.35539      0.00000     0.64283    0.00178     0.64461
    H 10    0.16878      0.00000     0.82884    0.00238     0.83122
    H 11    0.20865      0.00000     0.78978    0.00157     0.79135
    H 12    0.20361      0.00000     0.79486    0.00153     0.79639
    H 13    0.17006      0.00000     0.82738    0.00256     0.82994
    H 14    0.18721      0.00000     0.81116    0.00163     0.81279
    H 15    0.17006      0.00000     0.82738    0.00256     0.82994
    H 16    0.18721      0.00000     0.81116    0.00163     0.81279
    H 17    0.20361      0.00000     0.79486    0.00153     0.79639
    H 18    0.20865      0.00000     0.78978    0.00157     0.79135
 ====================================================================
 * Total *  0.00000     13.99995    41.86012    0.13993    56.00000

 Normal termination of Gaussian 16 at Mon Feb 21 19:39:28 2022.
 Gaussian 16:  ES64L-G16RevC.01  3-Jul-2019

 --------------------------------------------------------------------
 # M062X/def2tzvp int=(grid=ultrafine) nmr=giao guess=read geom=check
 --------------------------------------------------------------------

 ------
 N5.xyz
 ------
 Structure from the checkpoint file:  "N5_conf-1.chk"
 Charge =  0 Multiplicity = 1

                         Standard orientation:
 ---------------------------------------------------------------------
 Center     Atomic      Atomic             Coordinates (Angstroms)
 Number     Number       Type             X           Y           Z
 ---------------------------------------------------------------------
      1          7           0       -1.767688    0.000000   -0.846518
      2          6           0       -1.124632   -0.000000    0.474267
      3          6           0       -0.240312   -1.251708    0.606825
      4          6           0        0.967599   -1.175639   -0.327979
      5          8           0        1.732916   -0.000000   -0.086474
      6          6           0        0.967597    1.175641   -0.327979
      7          6           0       -0.240312    1.251708    0.606825
      8          1           0       -2.369289    0.815173   -0.938187
      9          1           0       -2.369283   -0.815177   -0.938190
     10          1           0       -1.853978    0.000000    1.302993
     11          1           0        0.111542   -1.327983    1.641898
     12          1           0       -0.824738   -2.156342    0.393596
     13          1           0        0.630686   -1.198840   -1.374643
     14          1           0        1.644208   -2.018779   -0.161322
     15          1           0        0.630686    1.198838   -1.374643
     16          1           0        1.644209    2.018780   -0.161323
     17          1           0       -0.824739    2.156342    0.393598
     18          1           0        0.111544    1.327982    1.641898
 ---------------------------------------------------------------------

 SCF Done:  E(RM062X) =  -327.097570320     A.U. after    1 cycles

      1  N    Isotropic =   215.8034   Anisotropy =    44.7543

      2  C    Isotropic =   138.4004   Anisotropy =    33.1380

      3  C    Isotropic =   149.0605   Anisotropy =    10.3015

      4  C    Isotropic =   121.0200   Anisotropy =    74.2960

      5  O    Isotropic =   284.6483   Anisotropy =    68.4742

      6  C    Isotropic =   121.0198   Anisotropy =    74.2962

      7  C    Isotropic =   149.0605   Anisotropy =    10.3014

      8  H    Isotropic =    31.7115   Anisotropy =    13.6794

      9  H    Isotropic =    31.7115   Anisotropy =    13.6794

     10  H    Isotropic =    28.4944   Anisotropy =     8.9448

     11  H    Isotropic =    30.1442   Anisotropy =     8.3174

     12  H    Isotropic =    30.8439   Anisotropy =     8.1744

     13  H    Isotropic =    27.9104   Anisotropy =     6.0315

     14  H    Isotropic =    28.4378   Anisotropy =     8.2366

     15  H    Isotropic =    27.9104   Anisotropy =     6.0314

     16  H    Isotropic =    28.4378   Anisotropy =     8.2366

     17  H    Isotropic =    30.8439   Anisotropy =     8.1745

     18  H    Isotropic =    30.1442   Anisotropy =     8.3174

 The electronic state is 1-A.
 Alpha  occ. eigenvalues --  -19.61470 -14.72968 -10.57063 -10.57061 -10.56770
 Alpha  occ. eigenvalues --  -10.53028 -10.53027  -1.14498  -0.99747  -0.86312
 Alpha  occ. eigenvalues --   -0.85372  -0.72076  -0.71819  -0.62976  -0.57130
 Alpha  occ. eigenvalues --   -0.56068  -0.53257  -0.52840  -0.52102  -0.46144
 Alpha  occ. eigenvalues --   -0.45931  -0.44567  -0.42343  -0.41144  -0.37458
 Alpha  occ. eigenvalues --   -0.36106  -0.33354  -0.29945
 Alpha virt. eigenvalues --    0.05344   0.09297   0.09705   0.10811   0.12115
 Alpha virt. eigenvalues --    0.12494   0.13542   0.13959   0.15082   0.16309
 Alpha virt. eigenvalues --    0.17174   0.18263   0.19061   0.22080   0.22750

 Mulliken charges:
               1
     1  N   -0.591134
     2  C    0.078398
     3  C   -0.344434
     4  C   -0.095723
     5  O   -0.316648
     6  C   -0.095723
     7  C   -0.344433
     8  H    0.231150
     9  H    0.231150
    10  H    0.128853
    11  H    0.144688
    12  H    0.140967
    13  H    0.138898
    14  H    0.134718
    15  H    0.138898
    16  H    0.134719
    17  H    0.140967
    18  H    0.144688
 Sum of Mulliken charges =  -0.00000

 Dipole moment (field-independent basis, Debye):
    X=             -2.5388    Y=              0.0000    Z=              0.5189  Tot=              2.5913
 Quadrupole moment (field-independent basis, Debye-Ang):
   XX=            -44.7607   YY=            -40.2485   ZZ=            -45.9067
   XY=              0.0000   XZ=              0.2045   YZ=              0.0000

 Normal termination of Gaussian 16 at Mon Feb 21 19:39:44 2022.
