 Gaussian 16, Revision C.01,

 ----------------------------------------------------------------------
 # B3LYP/6-31G(d,p) empiricaldispersion=GD3BJ int=(grid=ultrafine) opt
 freq=noraman
 ----------------------------------------------------------------------

 ------
 N5.xyz
 ------
 Symbolic Z-matrix:
 Charge =  0 Multiplicity = 1

 SCF Done:  E(RB3LYP) =  -327.149309225     A.U. after   13 cycles
 SCF Done:  E(RB3LYP) =  -327.155925310     A.U. after   11 cycles
 SCF Done:  E(RB3LYP) =  -327.156976800     A.U. after   11 cycles
 SCF Done:  E(RB3LYP) =  -327.157029728     A.U. after    9 cycles
 SCF Done:  E(RB3LYP) =  -327.157031668     A.U. after    7 cycles
 SCF Done:  E(RB3LYP) =  -327.157032219     A.U. after    7 cycles
 SCF Done:  E(RB3LYP) =  -327.157032442     A.U. after    6 cycles
 SCF Done:  E(RB3LYP) =  -327.157032569     A.U. after    6 cycles
 SCF Done:  E(RB3LYP) =  -327.157032618     A.U. after    6 cycles
 Optimization completed.
    -- Stationary point found.
 Normal termination of Gaussian 16 at Mon Feb 21 19:38:48 2022.

 ----------------------------------------------------------------------
 #N Geom=AllCheck Guess=TCheck SCRF=Check GenChk RB3LYP/6-31G(d,p) Freq
 ----------------------------------------------------------------------

 Structure from the checkpoint file:  "N5_conf-3.chk"
 ------
 N5.xyz
 ------
 Charge =  0 Multiplicity = 1

 SCF Done:  E(RB3LYP) =  -327.157032618     A.U. after    1 cycles

                      1                      2                      3
                      A                      A                      A
 Frequencies --    172.3081               222.5222               242.9355
 Red. masses --      3.5849                 1.7505                 1.1788
 Frc consts  --      0.0627                 0.0511                 0.0410
 IR Inten    --      2.9133                14.8684                34.7588

                      4                      5                      6
                      A                      A                      A
 Frequencies --    332.8245               411.0764               416.8103
 Red. masses --      2.9447                 1.9860                 1.8763
 Frc consts  --      0.1922                 0.1977                 0.1921
 IR Inten    --      2.1176                 8.5548                 1.5162

                      7                      8                      9
                      A                      A                      A
 Frequencies --    493.0691               517.9363               670.3568
 Red. masses --      2.9513                 2.8531                 1.8578
 Frc consts  --      0.4227                 0.4509                 0.4919
 IR Inten    --      4.9942                 6.4986                 5.1546

                     10                     11                     12
                      A                      A                      A
 Frequencies --    791.7730               812.6755               860.8116
 Red. masses --      3.2099                 1.6191                 2.4007
 Frc consts  --      1.1856                 0.6300                 1.0481
 IR Inten    --     14.4008                 4.9352                95.1159

                     13                     14                     15
                      A                      A                      A
 Frequencies --    876.5733               909.1216               995.6816
 Red. masses --      2.4255                 1.8003                 2.0861
 Frc consts  --      1.0981                 0.8767                 1.2185
 IR Inten    --      4.0519                63.6303                 5.2188

                     16                     17                     18
                      A                      A                      A
 Frequencies --   1019.0453              1029.5101              1044.7394
 Red. masses --      1.9337                 1.4985                 1.8287
 Frc consts  --      1.1831                 0.9358                 1.1760
 IR Inten    --     12.1315                 2.9487                 3.6759

                     19                     20                     21
                      A                      A                      A
 Frequencies --   1089.4611              1112.2133              1150.1912
 Red. masses --      1.8009                 2.4819                 2.0346
 Frc consts  --      1.2594                 1.8089                 1.5859
 IR Inten    --     35.4432                69.9005                 7.7454

                     22                     23                     24
                      A                      A                      A
 Frequencies --   1213.0737              1223.7327              1254.3011
 Red. masses --      1.2605                 1.7071                 1.4141
 Frc consts  --      1.0928                 1.5062                 1.3108
 IR Inten    --      4.4565                20.4629                41.8922

                     25                     26                     27
                      A                      A                      A
 Frequencies --   1296.7921              1328.0234              1351.3974
 Red. masses --      1.3774                 1.2578                 1.3551
 Frc consts  --      1.3647                 1.3070                 1.4581
 IR Inten    --      3.7163                 7.8719                 2.1561

                     28                     29                     30
                      A                      A                      A
 Frequencies --   1368.5935              1394.6218              1401.6916
 Red. masses --      1.3014                 1.4600                 1.3123
 Frc consts  --      1.4362                 1.6730                 1.5191
 IR Inten    --      0.6992                 1.5695                14.4563

                     31                     32                     33
                      A                      A                      A
 Frequencies --   1419.4764              1441.3034              1477.7990
 Red. masses --      1.3978                 1.3476                 1.0984
 Frc consts  --      1.6594                 1.6494                 1.4133
 IR Inten    --     12.5346                 2.0989                 4.7190

                     34                     35                     36
                      A                      A                      A
 Frequencies --   1492.4831              1511.2906              1522.0267
 Red. masses --      1.1016                 1.0822                 1.1028
 Frc consts  --      1.4458                 1.4563                 1.5051
 IR Inten    --      5.1667                 0.6139                 3.0509

                     37                     38                     39
                      A                      A                      A
 Frequencies --   1670.6395              2955.0224              2964.4785
 Red. masses --      1.0918                 1.0723                 1.0724
 Frc consts  --      1.7953                 5.5170                 5.5529
 IR Inten    --     25.8464                32.7104                98.1380

                     40                     41                     42
                      A                      A                      A
 Frequencies --   3031.6199              3045.8410              3058.6365
 Red. masses --      1.0627                 1.0755                 1.0698
 Frc consts  --      5.7548                 5.8786                 5.8969
 IR Inten    --     20.6429                25.2091                46.5931

                     43                     44                     45
                      A                      A                      A
 Frequencies --   3079.2227              3100.0822              3102.6061
 Red. masses --      1.1030                 1.0904                 1.0923
 Frc consts  --      6.1621                 6.1743                 6.1951
 IR Inten    --     44.8843                57.0021                23.3406

                     46                     47                     48
                      A                      A                      A
 Frequencies --   3107.0742              3487.8961              3571.4230
 Red. masses --      1.1047                 1.0493                 1.0917
 Frc consts  --      6.2836                 7.5210                 8.2044
 IR Inten    --     33.3701                 1.7176                 0.3367

 - Thermochemistry -
 -------------------
 Temperature   298.150 Kelvin.  Pressure   1.00000 Atm.
 Atom     1 has atomic number  7 and mass  14.00307

 Molecular mass:   101.08406 amu.
 Principal axes and moments of inertia in atomic units:
                           1         2         3
     Eigenvalues --   474.28041 694.67175 903.40109
           X            0.99949   0.03138   0.00597
           Y           -0.03133   0.99947  -0.00875
           Z           -0.00624   0.00856   0.99994
 This molecule is an asymmetric top.
 Rotational symmetry number  1.
 Warning -- assumption of classical behavior for rotation
           may cause significant error
 Rotational temperatures (Kelvin)      0.18262     0.12468     0.09588
 Rotational constants (GHZ):           3.80522     2.59798     1.99772
 Zero-point vibrational energy     430911.5 (Joules/Mol)
                                  102.99033 (Kcal/Mol)
 Warning -- explicit consideration of   8 degrees of freedom as
           vibrations may cause significant error
 Vibrational temperatures:    247.91   320.16   349.53   478.86   591.45
          (Kelvin)            599.70   709.42   745.19   964.49  1139.18
                             1169.26  1238.52  1261.19  1308.02  1432.56
                             1466.18  1481.24  1503.15  1567.49  1600.23
                             1654.87  1745.34  1760.68  1804.66  1865.79
                             1910.73  1944.36  1969.10  2006.55  2016.72
                             2042.31  2073.71  2126.22  2147.35  2174.41
                             2189.86  2403.68  4251.62  4265.22  4361.82
                             4382.29  4400.70  4430.31  4460.33  4463.96
                             4470.39  5018.30  5138.48

 Zero-point correction=                           0.164126 (Hartree/Particle)
 Thermal correction to Energy=                    0.170793
 Thermal correction to Enthalpy=                  0.171738
 Thermal correction to Gibbs Free Energy=         0.133974
 Sum of electronic and zero-point Energies=           -326.992907
 Sum of electronic and thermal Energies=              -326.986239
 Sum of electronic and thermal Enthalpies=            -326.985295
 Sum of electronic and thermal Free Energies=         -327.023059

                     E (Thermal)             CV                S
                      KCal/Mol        Cal/Mol-Kelvin    Cal/Mol-Kelvin
 Total                  107.174             26.187             79.480
 Electronic               0.000              0.000              0.000
 Translational            0.889              2.981             39.750
 Rotational               0.889              2.981             27.189
 Vibrational            105.397             20.226             12.541
 Vibration     1          0.626              1.877              2.410
 Vibration     2          0.648              1.807              1.938
 Vibration     3          0.659              1.774              1.781
 Vibration     4          0.715              1.610              1.246
 Vibration     5          0.775              1.446              0.923
 Vibration     6          0.780              1.434              0.903
 Vibration     7          0.849              1.265              0.676
 Vibration     8          0.873              1.210              0.615

 Optimization completed.
    -- Stationary point found.
 Normal termination of Gaussian 16 at Mon Feb 21 19:39:03 2022.

 ----------------------------------------------------------------------
 # M062X/def2tzvp int=(grid=ultrafine) pop=nbo7 polar prop=efg volume g
 uess=read geom=check
 ----------------------------------------------------------------------

 ------
 N5.xyz
 ------
 Structure from the checkpoint file:  "N5_conf-3.chk"
 Charge =  0 Multiplicity = 1

 SCF Done:  E(RM062X) =  -327.095841187     A.U. after   11 cycles

  Exact polarizability:      69.083       0.797      71.656      -0.347      -0.044      64.101
 Approx polarizability:      79.830       1.045      81.745      -1.592       0.068      80.366

 Summary of Natural Population Analysis:

                                     Natural Population
             Natural    ---------------------------------------------
  Atom No    Charge        Core      Valence    Rydberg      Total
 --------------------------------------------------------------------
    N  1   -0.83421      1.99999     5.80825    0.02596     7.83421
    C  2   -0.04378      1.99999     4.02917    0.01462     6.04378
    C  3   -0.44425      1.99999     4.43228    0.01198     6.44425
    C  4   -0.07550      1.99999     4.05802    0.01749     6.07550
    O  5   -0.51155      2.00000     6.48930    0.02225     8.51155
    C  6   -0.07498      1.99999     4.05798    0.01700     6.07498
    C  7   -0.43527      1.99999     4.42269    0.01259     6.43527
    H  8    0.34547      0.00000     0.65199    0.00254     0.65453
    H  9    0.35357      0.00000     0.64457    0.00185     0.64643
    H 10    0.19346      0.00000     0.80453    0.00201     0.80654
    H 11    0.20840      0.00000     0.78989    0.00170     0.79160
    H 12    0.20469      0.00000     0.79366    0.00165     0.79531
    H 13    0.14661      0.00000     0.85020    0.00318     0.85339
    H 14    0.19396      0.00000     0.80445    0.00160     0.80604
    H 15    0.14874      0.00000     0.84865    0.00261     0.85126
    H 16    0.19457      0.00000     0.80384    0.00159     0.80543
    H 17    0.22228      0.00000     0.77614    0.00158     0.77772
    H 18    0.20778      0.00000     0.79068    0.00154     0.79222
 ====================================================================
 * Total *  0.00000     13.99995    41.85631    0.14374    56.00000

 Normal termination of Gaussian 16 at Mon Feb 21 19:39:42 2022.
 Gaussian 16:  ES64L-G16RevC.01  3-Jul-2019

 --------------------------------------------------------------------
 # M062X/def2tzvp int=(grid=ultrafine) nmr=giao guess=read geom=check
 --------------------------------------------------------------------

 ------
 N5.xyz
 ------
 Structure from the checkpoint file:  "N5_conf-3.chk"
 Charge =  0 Multiplicity = 1

                         Standard orientation:
 ---------------------------------------------------------------------
 Center     Atomic      Atomic             Coordinates (Angstroms)
 Number     Number       Type             X           Y           Z
 ---------------------------------------------------------------------
      1          7           0        1.898306   -0.124620   -0.788347
      2          6           0        1.133643   -0.037111    0.464391
      3          6           0        0.275971    1.240049    0.616774
      4          6           0       -0.937332    1.199935   -0.312104
      5          8           0       -1.734288    0.045941   -0.080943
      6          6           0       -1.004416   -1.152867   -0.315626
      7          6           0        0.215845   -1.263944    0.600397
      8          1           0        1.271669   -0.092532   -1.589107
      9          1           0        2.501891    0.690361   -0.875605
     10          1           0        1.870838   -0.062449    1.275571
     11          1           0       -0.080422    1.319768    1.651083
     12          1           0        0.880104    2.132240    0.408098
     13          1           0       -0.610414    1.225198   -1.367181
     14          1           0       -1.590067    2.061977   -0.150180
     15          1           0       -0.700488   -1.204298   -1.376065
     16          1           0       -1.703101   -1.974931   -0.137982
     17          1           0        0.780754   -2.172604    0.368895
     18          1           0       -0.136870   -1.334289    1.635450
 ---------------------------------------------------------------------

 SCF Done:  E(RM062X) =  -327.095841187     A.U. after    1 cycles

      1  N    Isotropic =   220.3057   Anisotropy =    56.7153

      2  C    Isotropic =   138.0963   Anisotropy =    36.4075

      3  C    Isotropic =   145.9092   Anisotropy =    16.2260

      4  C    Isotropic =   120.9483   Anisotropy =    77.8858

      5  O    Isotropic =   284.5039   Anisotropy =    71.0962

      6  C    Isotropic =   120.0778   Anisotropy =    75.9894

      7  C    Isotropic =   150.6419   Anisotropy =    11.7366

      8  H    Isotropic =    30.5263   Anisotropy =    10.2120

      9  H    Isotropic =    31.8988   Anisotropy =    14.8396

     10  H    Isotropic =    28.8597   Anisotropy =     8.2648

     11  H    Isotropic =    29.9975   Anisotropy =     8.1748

     12  H    Isotropic =    30.9124   Anisotropy =     8.1497

     13  H    Isotropic =    28.3603   Anisotropy =     6.0616

     14  H    Isotropic =    28.2501   Anisotropy =     8.3604

     15  H    Isotropic =    28.5221   Anisotropy =     6.2248

     16  H    Isotropic =    28.2547   Anisotropy =     8.2290

     17  H    Isotropic =    30.4463   Anisotropy =     8.4894

     18  H    Isotropic =    30.1044   Anisotropy =     8.3790

 The electronic state is 1-A.
 Alpha  occ. eigenvalues --  -19.62425 -14.72870 -10.58230 -10.58117 -10.56791
 Alpha  occ. eigenvalues --  -10.53297 -10.53043  -1.15511  -0.99641  -0.86437
 Alpha  occ. eigenvalues --   -0.86056  -0.72860  -0.72436  -0.63415  -0.59010
 Alpha  occ. eigenvalues --   -0.54903  -0.54072  -0.52820  -0.51371  -0.49369
 Alpha  occ. eigenvalues --   -0.45318  -0.44378  -0.42448  -0.41698  -0.38989
 Alpha  occ. eigenvalues --   -0.36977  -0.32482  -0.30811
 Alpha virt. eigenvalues --    0.05503   0.07462   0.09901   0.10751   0.11920
 Alpha virt. eigenvalues --    0.12954   0.13273   0.13778   0.15103   0.15662
 Alpha virt. eigenvalues --    0.17034   0.17530   0.20004   0.21699   0.22145

 Mulliken charges:
               1
     1  N   -0.538835
     2  C    0.004804
     3  C   -0.290445
     4  C   -0.143010
     5  O   -0.306026
     6  C   -0.183785
     7  C   -0.261262
     8  H    0.222814
     9  H    0.223857
    10  H    0.136409
    11  H    0.143393
    12  H    0.139856
    13  H    0.126895
    14  H    0.142289
    15  H    0.144804
    16  H    0.140956
    17  H    0.151724
    18  H    0.145560
 Sum of Mulliken charges =  -0.00000

 Dipole moment (field-independent basis, Debye):
    X=              0.7789    Y=              1.0487    Z=             -0.1017  Tot=              1.3103
 Quadrupole moment (field-independent basis, Debye-Ang):
   XX=            -50.7375   YY=            -41.7829   ZZ=            -42.8474
   XY=              3.7608   XZ=              0.9698   YZ=             -1.1859

 Normal termination of Gaussian 16 at Mon Feb 21 19:39:58 2022.
