 Gaussian 16, Revision C.01,

 ----------------------------------------------------------------------
 # B3LYP/6-31G(d,p) empiricaldispersion=GD3BJ int=(grid=ultrafine) opt
 freq=noraman
 ----------------------------------------------------------------------

 ------
 N5.xyz
 ------
 Symbolic Z-matrix:
 Charge =  0 Multiplicity = 1

 SCF Done:  E(RB3LYP) =  -327.155158682     A.U. after   12 cycles
 SCF Done:  E(RB3LYP) =  -327.158591747     A.U. after   11 cycles
 SCF Done:  E(RB3LYP) =  -327.158805119     A.U. after   10 cycles
 SCF Done:  E(RB3LYP) =  -327.158825421     A.U. after    8 cycles
 Optimization completed.
    -- Stationary point found.
 Normal termination of Gaussian 16 at Mon Feb 21 19:53:04 2022.

 ----------------------------------------------------------------------
 #N Geom=AllCheck Guess=TCheck SCRF=Check GenChk RB3LYP/6-31G(d,p) Freq
 ----------------------------------------------------------------------

 Structure from the checkpoint file:  "N5_conf-2.chk"
 ------
 N5.xyz
 ------
 Charge =  0 Multiplicity = 1

 SCF Done:  E(RB3LYP) =  -327.158825421     A.U. after    1 cycles

                      1                      2                      3
                      A                      A                      A
 Frequencies --    168.7214               236.4215               263.4940
 Red. masses --      3.3086                 1.6320                 1.1345
 Frc consts  --      0.0555                 0.0537                 0.0464
 IR Inten    --      1.0141                 2.2596                28.0533

                      4                      5                      6
                      A                      A                      A
 Frequencies --    343.1190               359.2218               413.3805
 Red. masses --      2.7195                 2.1738                 4.1427
 Frc consts  --      0.1886                 0.1653                 0.4171
 IR Inten    --     10.7772                11.2892                 1.0557

                      7                      8                      9
                      A                      A                      A
 Frequencies --    476.8583               490.7907               616.3476
 Red. masses --      2.0191                 2.9419                 2.2312
 Frc consts  --      0.2705                 0.4175                 0.4994
 IR Inten    --      4.0420                 0.8412                24.5032

                     10                     11                     12
                      A                      A                      A
 Frequencies --    813.0993               828.7137               875.6781
 Red. masses --      2.2866                 1.5203                 2.1097
 Frc consts  --      0.8907                 0.6152                 0.9532
 IR Inten    --     19.9203                 1.4632                49.6028

                     13                     14                     15
                      A                      A                      A
 Frequencies --    896.8901               909.5776              1006.6578
 Red. masses --      1.6449                 2.0733                 1.3708
 Frc consts  --      0.7796                 1.0106                 0.8185
 IR Inten    --     73.2025                 0.6882                 5.9693

                     16                     17                     18
                      A                      A                      A
 Frequencies --   1013.5909              1026.1387              1056.9292
 Red. masses --      1.9340                 2.5439                 1.6449
 Frc consts  --      1.1707                 1.5782                 1.0826
 IR Inten    --      5.3987                14.2885                 0.0593

                     19                     20                     21
                      A                      A                      A
 Frequencies --   1129.6563              1138.3603              1162.4966
 Red. masses --      2.7779                 4.1793                 2.3232
 Frc consts  --      2.0886                 3.1909                 1.8498
 IR Inten    --      6.5527                85.6865                17.7783

                     22                     23                     24
                      A                      A                      A
 Frequencies --   1194.8726              1245.7789              1283.3526
 Red. masses --      1.2569                 1.4747                 1.2911
 Frc consts  --      1.0573                 1.3484                 1.2528
 IR Inten    --      3.5461                29.8509                 3.0897

                     25                     26                     27
                      A                      A                      A
 Frequencies --   1294.9199              1317.1594              1346.9388
 Red. masses --      1.2136                 1.3358                 1.3941
 Frc consts  --      1.1990                 1.3654                 1.4902
 IR Inten    --      7.6545                 2.1481                 0.3581

                     28                     29                     30
                      A                      A                      A
 Frequencies --   1357.7776              1387.7811              1423.5091
 Red. masses --      1.1827                 1.2354                 1.5853
 Frc consts  --      1.2846                 1.4019                 1.8927
 IR Inten    --      1.7803                 5.3804                36.3929

                     31                     32                     33
                      A                      A                      A
 Frequencies --   1430.9635              1433.6231              1487.5892
 Red. masses --      1.6255                 1.3268                 1.0916
 Frc consts  --      1.9611                 1.6066                 1.4232
 IR Inten    --      9.1652                 6.3332                 0.8995

                     34                     35                     36
                      A                      A                      A
 Frequencies --   1504.3713              1507.1980              1519.6243
 Red. masses --      1.1031                 1.0848                 1.1058
 Frc consts  --      1.4709                 1.4519                 1.5045
 IR Inten    --      4.5019                 0.1078                 2.4661

                     37                     38                     39
                      A                      A                      A
 Frequencies --   1663.2888              2903.3100              2957.6671
 Red. masses --      1.0949                 1.0810                 1.0723
 Frc consts  --      1.7847                 5.3684                 5.5265
 IR Inten    --     29.5970                55.9961                19.9777

                     40                     41                     42
                      A                      A                      A
 Frequencies --   2965.1586              3034.2313              3036.4475
 Red. masses --      1.0722                 1.0623                 1.0643
 Frc consts  --      5.5542                 5.7622                 5.7817
 IR Inten    --    127.8991                54.0602                13.8224

                     43                     44                     45
                      A                      A                      A
 Frequencies --   3089.7668              3093.6819              3102.4832
 Red. masses --      1.0998                 1.0986                 1.0926
 Frc consts  --      6.1862                 6.1952                 6.1960
 IR Inten    --     26.0523                33.6729                38.4776

                     46                     47                     48
                      A                      A                      A
 Frequencies --   3105.1698              3477.8913              3563.3225
 Red. masses --      1.0942                 1.0495                 1.0924
 Frc consts  --      6.2159                 7.4794                 8.1725
 IR Inten    --     48.5176                 4.0011                 0.5965

 - Thermochemistry -
 -------------------
 Temperature   298.150 Kelvin.  Pressure   1.00000 Atm.
 Atom     1 has atomic number  7 and mass  14.00307

 Molecular mass:   101.08406 amu.
 Principal axes and moments of inertia in atomic units:
                           1         2         3
     Eigenvalues --   391.73005 802.022651094.82987
           X            0.99999  -0.00000  -0.00323
           Y            0.00000   1.00000  -0.00000
           Z            0.00323   0.00000   0.99999
 This molecule is an asymmetric top.
 Rotational symmetry number  1.
 Rotational temperatures (Kelvin)      0.22111     0.10799     0.07911
 Rotational constants (GHZ):           4.60710     2.25024     1.64842
 Zero-point vibrational energy     430380.6 (Joules/Mol)
                                  102.86344 (Kcal/Mol)
 Warning -- explicit consideration of   9 degrees of freedom as
           vibrations may cause significant error
 Vibrational temperatures:    242.75   340.16   379.11   493.67   516.84
          (Kelvin)            594.76   686.09   706.14   886.79  1169.87
                             1192.33  1259.91  1290.42  1308.68  1448.36
                             1458.33  1476.38  1520.69  1625.32  1637.85
                             1672.57  1719.16  1792.40  1846.46  1863.10
                             1895.10  1937.94  1953.54  1996.71  2048.11
                             2058.84  2062.66  2140.31  2164.45  2168.52
                             2186.40  2393.10  4177.22  4255.42  4266.20
                             4365.58  4368.77  4445.49  4451.12  4463.78
                             4467.65  5003.91  5126.83

 Zero-point correction=                           0.163923 (Hartree/Particle)
 Thermal correction to Energy=                    0.170622
 Thermal correction to Enthalpy=                  0.171566
 Thermal correction to Gibbs Free Energy=         0.133703
 Sum of electronic and zero-point Energies=           -326.994902
 Sum of electronic and thermal Energies=              -326.988204
 Sum of electronic and thermal Enthalpies=            -326.987259
 Sum of electronic and thermal Free Energies=         -327.025123

                     E (Thermal)             CV                S
                      KCal/Mol        Cal/Mol-Kelvin    Cal/Mol-Kelvin
 Total                  107.067             26.235             79.690
 Electronic               0.000              0.000              0.000
 Translational            0.889              2.981             39.750
 Rotational               0.889              2.981             27.333
 Vibrational            105.289             20.274             12.606
 Vibration     1          0.625              1.881              2.450
 Vibration     2          0.655              1.785              1.830
 Vibration     3          0.670              1.740              1.639
 Vibration     4          0.722              1.589              1.198
 Vibration     5          0.734              1.556              1.125
 Vibration     6          0.777              1.441              0.915
 Vibration     7          0.833              1.301              0.719
 Vibration     8          0.847              1.270              0.682
 Vibration     9          0.976              0.997              0.422

                           ! Non-Optimized Parameters !
 Normal termination of Gaussian 16 at Mon Feb 21 19:53:23 2022.

 ----------------------------------------------------------------------
 # M062X/def2tzvp int=(grid=ultrafine) pop=nbo7 polar prop=efg volume g
 uess=read geom=check
 ----------------------------------------------------------------------

 ------
 N5.xyz
 ------
 Structure from the checkpoint file:  "N5_conf-2.chk"
 Charge =  0 Multiplicity = 1

 SCF Done:  E(RM062X) =  -327.098187117     A.U. after   11 cycles

  Exact polarizability:      74.513       0.000      72.901      -1.094       0.000      60.485
 Approx polarizability:      80.746       0.000      83.576       0.114       0.000      79.148

 Summary of Natural Population Analysis:

                                     Natural Population
             Natural    ---------------------------------------------
  Atom No    Charge        Core      Valence    Rydberg      Total
 --------------------------------------------------------------------
    N  1   -0.82947      1.99999     5.80503    0.02445     7.82947
    C  2   -0.04061      1.99999     4.02718    0.01344     6.04061
    C  3   -0.43410      1.99999     4.42115    0.01296     6.43410
    C  4   -0.07037      1.99999     4.05338    0.01699     6.07037
    O  5   -0.50798      2.00000     6.48598    0.02201     8.50798
    C  6   -0.07037      1.99999     4.05338    0.01699     6.07037
    C  7   -0.43410      1.99999     4.42115    0.01296     6.43410
    H  8    0.35288      0.00000     0.64532    0.00179     0.64712
    H  9    0.35288      0.00000     0.64532    0.00179     0.64712
    H 10    0.15483      0.00000     0.84232    0.00285     0.84517
    H 11    0.20454      0.00000     0.79395    0.00151     0.79546
    H 12    0.21412      0.00000     0.78379    0.00209     0.78588
    H 13    0.15164      0.00000     0.84546    0.00290     0.84836
    H 14    0.19289      0.00000     0.80549    0.00162     0.80711
    H 15    0.19289      0.00000     0.80549    0.00162     0.80711
    H 16    0.15164      0.00000     0.84546    0.00290     0.84836
    H 17    0.20454      0.00000     0.79395    0.00151     0.79546
    H 18    0.21412      0.00000     0.78379    0.00209     0.78588
 ====================================================================
 * Total *  0.00000     13.99995    41.85760    0.14245    56.00000

 Normal termination of Gaussian 16 at Mon Feb 21 19:54:09 2022.
 Gaussian 16:  ES64L-G16RevC.01  3-Jul-2019

 --------------------------------------------------------------------
 # M062X/def2tzvp int=(grid=ultrafine) nmr=giao guess=read geom=check
 --------------------------------------------------------------------

 ------
 N5.xyz
 ------
 Structure from the checkpoint file:  "N5_conf-2.chk"
 Charge =  0 Multiplicity = 1

                         Standard orientation:
 ---------------------------------------------------------------------
 Center     Atomic      Atomic             Coordinates (Angstroms)
 Number     Number       Type             X           Y           Z
 ---------------------------------------------------------------------
      1          7           0        2.393380    0.000002   -0.168322
      2          6           0        1.014638    0.000000    0.322936
      3          6           0        0.279207    1.247114   -0.179631
      4          6           0       -1.204672    1.176368    0.182576
      5          8           0       -1.815449   -0.000002   -0.329887
      6          6           0       -1.204672   -1.176367    0.182576
      7          6           0        0.279209   -1.247114   -0.179631
      8          1           0        2.886329   -0.814317    0.192884
      9          1           0        2.886333    0.814310    0.192907
     10          1           0        0.950430    0.000001    1.429512
     11          1           0        0.722837    2.155973    0.248014
     12          1           0        0.391773    1.302592   -1.268043
     13          1           0       -1.326168    1.214367    1.279855
     14          1           0       -1.756158    2.017889   -0.245286
     15          1           0       -1.756155   -2.017891   -0.245284
     16          1           0       -1.326165   -1.214368    1.279856
     17          1           0        0.722838   -2.155972    0.248020
     18          1           0        0.391778   -1.302593   -1.268040
 ---------------------------------------------------------------------

 SCF Done:  E(RM062X) =  -327.098187117     A.U. after    1 cycles

      1  N    Isotropic =   208.5234   Anisotropy =    51.7155

      2  C    Isotropic =   132.6964   Anisotropy =    36.6465

      3  C    Isotropic =   147.1669   Anisotropy =    16.9937

      4  C    Isotropic =   115.7485   Anisotropy =    68.0475

      5  O    Isotropic =   285.6282   Anisotropy =    70.9247

      6  C    Isotropic =   115.7487   Anisotropy =    68.0470

      7  C    Isotropic =   147.1670   Anisotropy =    16.9933

      8  H    Isotropic =    31.3845   Anisotropy =    13.5016

      9  H    Isotropic =    31.3844   Anisotropy =    13.5017

     10  H    Isotropic =    29.0406   Anisotropy =     6.0656

     11  H    Isotropic =    30.5825   Anisotropy =     7.7079

     12  H    Isotropic =    30.5110   Anisotropy =     6.6938

     13  H    Isotropic =    28.6902   Anisotropy =     7.7741

     14  H    Isotropic =    28.0199   Anisotropy =     7.9150

     15  H    Isotropic =    28.0199   Anisotropy =     7.9150

     16  H    Isotropic =    28.6901   Anisotropy =     7.7741

     17  H    Isotropic =    30.5825   Anisotropy =     7.7080

     18  H    Isotropic =    30.5110   Anisotropy =     6.6938

 The electronic state is 1-A.
 Alpha  occ. eigenvalues --  -19.62232 -14.72893 -10.57984 -10.57982 -10.56697
 Alpha  occ. eigenvalues --  -10.53007 -10.53006  -1.15340  -0.99702  -0.86860
 Alpha  occ. eigenvalues --   -0.85874  -0.72563  -0.71369  -0.64305  -0.56771
 Alpha  occ. eigenvalues --   -0.55595  -0.54026  -0.53925  -0.52455  -0.47235
 Alpha  occ. eigenvalues --   -0.46056  -0.44683  -0.41743  -0.41396  -0.37655
 Alpha  occ. eigenvalues --   -0.36826  -0.32710  -0.31143
 Alpha virt. eigenvalues --    0.05967   0.08153   0.09197   0.09824   0.12589
 Alpha virt. eigenvalues --    0.12699   0.13840   0.14701   0.15273   0.15983
 Alpha virt. eigenvalues --    0.16000   0.17505   0.18271   0.22565   0.23232

 Mulliken charges:
               1
     1  N   -0.555097
     2  C   -0.004977
     3  C   -0.281687
     4  C   -0.137195
     5  O   -0.307399
     6  C   -0.137195
     7  C   -0.281690
     8  H    0.227192
     9  H    0.227193
    10  H    0.128185
    11  H    0.133700
    12  H    0.157647
    13  H    0.131796
    14  H    0.138193
    15  H    0.138192
    16  H    0.131795
    17  H    0.133700
    18  H    0.157647
 Sum of Mulliken charges =  -0.00000

 Dipole moment (field-independent basis, Debye):
    X=              1.3410    Y=             -0.0000    Z=              2.0127  Tot=              2.4185
 Quadrupole moment (field-independent basis, Debye-Ang):
   XX=            -46.8019   YY=            -39.9996   ZZ=            -46.0265
   XY=             -0.0001   XZ=              2.3550   YZ=              0.0000

 Normal termination of Gaussian 16 at Mon Feb 21 19:54:26 2022.
