 Gaussian 16, Revision C.01,

 ----------------------------------------------------------------------
 # B3LYP/6-31G(d,p) empiricaldispersion=GD3BJ int=(grid=ultrafine) opt=
 (calcfc,tight) freq=noraman
 ----------------------------------------------------------------------

 ------
 N5.xyz
 ------
 Symbolic Z-matrix:
 Charge =  0 Multiplicity = 1

 SCF Done:  E(RB3LYP) =  -327.155136571     A.U. after   12 cycles
 SCF Done:  E(RB3LYP) =  -327.155693863     A.U. after   11 cycles
 SCF Done:  E(RB3LYP) =  -327.157451777     A.U. after   11 cycles
 SCF Done:  E(RB3LYP) =  -327.159281369     A.U. after   12 cycles
 SCF Done:  E(RB3LYP) =  -327.159434440     A.U. after   10 cycles
 SCF Done:  E(RB3LYP) =  -327.159441430     A.U. after    9 cycles
 SCF Done:  E(RB3LYP) =  -327.159449577     A.U. after    9 cycles
 SCF Done:  E(RB3LYP) =  -327.159451005     A.U. after    7 cycles
 SCF Done:  E(RB3LYP) =  -327.159451020     A.U. after    5 cycles
 Optimization completed.
    -- Stationary point found.
 Normal termination of Gaussian 16 at Wed May  4 11:13:25 2022.

 ----------------------------------------------------------------------
 #N Geom=AllCheck Guess=TCheck SCRF=Check GenChk RB3LYP/6-31G(d,p) Freq
 ----------------------------------------------------------------------

 Structure from the checkpoint file:  "N5_conf-4-1.chk"
 ------
 N5.xyz
 ------
 Charge =  0 Multiplicity = 1

 SCF Done:  E(RB3LYP) =  -327.159451020     A.U. after    1 cycles

                      1                      2                      3
                      A                      A                      A
 Frequencies --    167.2082               233.1514               277.3606
 Red. masses --      3.2099                 1.6495                 1.1489
 Frc consts  --      0.0529                 0.0528                 0.0521
 IR Inten    --      3.8254                 6.2208                34.7128

                      4                      5                      6
                      A                      A                      A
 Frequencies --    344.0912               360.0057               414.8245
 Red. masses --      2.6996                 2.2147                 4.0705
 Frc consts  --      0.1883                 0.1691                 0.4127
 IR Inten    --     15.2463                 3.2025                 0.2149

                      7                      8                      9
                      A                      A                      A
 Frequencies --    472.6382               484.1837               613.5712
 Red. masses --      1.8710                 2.8691                 2.1661
 Frc consts  --      0.2463                 0.3963                 0.4805
 IR Inten    --      3.6049                 1.1539                 8.3504

                     10                     11                     12
                      A                      A                      A
 Frequencies --    812.0909               824.0591               872.2444
 Red. masses --      2.6212                 1.5354                 2.3642
 Frc consts  --      1.0185                 0.6143                 1.0598
 IR Inten    --      5.4260                 0.6443                88.6229

                     13                     14                     15
                      A                      A                      A
 Frequencies --    889.6731               930.5209              1001.0779
 Red. masses --      1.8491                 1.7207                 1.3660
 Frc consts  --      0.8623                 0.8778                 0.8065
 IR Inten    --     51.3626                46.9403                 6.8251

                     16                     17                     18
                      A                      A                      A
 Frequencies --   1013.6994              1022.5865              1065.4086
 Red. masses --      1.8546                 2.6657                 1.4127
 Frc consts  --      1.1228                 1.6423                 0.9448
 IR Inten    --      7.6211                16.1623                 1.3413

                     19                     20                     21
                      A                      A                      A
 Frequencies --   1114.2701              1131.9759              1178.6949
 Red. masses --      3.0124                 3.0710                 2.4428
 Frc consts  --      2.2037                 2.3185                 1.9996
 IR Inten    --     20.9542                23.4757                60.7665

                     22                     23                     24
                      A                      A                      A
 Frequencies --   1200.8478              1228.6892              1267.3543
 Red. masses --      1.4441                 1.6895                 1.2925
 Frc consts  --      1.2269                 1.5027                 1.2232
 IR Inten    --     22.1175                15.5879                14.2247

                     25                     26                     27
                      A                      A                      A
 Frequencies --   1295.7558              1331.1457              1340.7592
 Red. masses --      1.3056                 1.2810                 1.3009
 Frc consts  --      1.2915                 1.3374                 1.3778
 IR Inten    --      8.4820                 4.8525                 3.8190

                     28                     29                     30
                      A                      A                      A
 Frequencies --   1376.1426              1383.2764              1396.7855
 Red. masses --      1.2870                 1.2982                 1.3390
 Frc consts  --      1.4360                 1.4636                 1.5392
 IR Inten    --      0.9740                 1.4733                17.9553

                     31                     32                     33
                      A                      A                      A
 Frequencies --   1425.8781              1439.3037              1483.2632
 Red. masses --      1.4373                 1.3775                 1.0942
 Frc consts  --      1.7217                 1.6814                 1.4183
 IR Inten    --     23.8118                 2.0344                 0.6737

                     34                     35                     36
                      A                      A                      A
 Frequencies --   1499.5592              1507.2213              1519.8039
 Red. masses --      1.1036                 1.0825                 1.1055
 Frc consts  --      1.4621                 1.4489                 1.5045
 IR Inten    --      5.0027                 0.1275                 2.5874

                     37                     38                     39
                      A                      A                      A
 Frequencies --   1666.8387              2961.3300              2968.5309
 Red. masses --      1.0930                 1.0720                 1.0721
 Frc consts  --      1.7891                 5.5388                 5.5662
 IR Inten    --     24.7402                24.9658                88.9451

                     40                     41                     42
                      A                      A                      A
 Frequencies --   3009.6084              3026.0264              3035.5173
 Red. masses --      1.0829                 1.0597                 1.0649
 Frc consts  --      5.7789                 5.7171                 5.7813
 IR Inten    --     21.2823                25.3156                40.0290

                     43                     44                     45
                      A                      A                      A
 Frequencies --   3074.1074              3096.9741              3099.5167
 Red. masses --      1.1040                 1.0994                 1.0923
 Frc consts  --      6.1471                 6.2125                 6.1826
 IR Inten    --     52.2267                39.6763                44.2625

                     46                     47                     48
                      A                      A                      A
 Frequencies --   3103.2851              3468.6790              3553.3625
 Red. masses --      1.0932                 1.0493                 1.0918
 Frc consts  --      6.2030                 7.4386                 8.1221
 IR Inten    --     38.5161                 2.2638                 0.9072

 - Thermochemistry -
 -------------------
 Temperature   298.150 Kelvin.  Pressure   1.00000 Atm.
 Atom     1 has atomic number  7 and mass  14.00307

 Molecular mass:   101.08406 amu.
 Principal axes and moments of inertia in atomic units:
                           1         2         3
     Eigenvalues --   392.58567 809.641771097.82234
           X            0.99971  -0.01666   0.01724
           Y            0.01662   0.99986   0.00244
           Z           -0.01728  -0.00216   0.99985
 This molecule is an asymmetric top.
 Rotational symmetry number  1.
 Rotational temperatures (Kelvin)      0.22062     0.10698     0.07890
 Rotational constants (GHZ):           4.59706     2.22906     1.64393
 Zero-point vibrational energy     430553.3 (Joules/Mol)
                                  102.90472 (Kcal/Mol)
 Warning -- explicit consideration of   9 degrees of freedom as
           vibrations may cause significant error
 Vibrational temperatures:    240.58   335.45   399.06   495.07   517.97
          (Kelvin)            596.84   680.02   696.63   882.79  1168.42
                             1185.64  1254.97  1280.04  1338.81  1440.33
                             1458.49  1471.27  1532.89  1603.19  1628.66
                             1695.88  1727.75  1767.81  1823.44  1864.30
                             1915.22  1929.05  1979.96  1990.23  2009.66
                             2051.52  2070.84  2134.08  2157.53  2168.56
                             2186.66  2398.21  4260.69  4271.05  4330.16
                             4353.78  4367.43  4422.95  4455.85  4459.51
                             4464.94  4990.66  5112.50

 Zero-point correction=                           0.163989 (Hartree/Particle)
 Thermal correction to Energy=                    0.170685
 Thermal correction to Enthalpy=                  0.171629
 Thermal correction to Gibbs Free Energy=         0.133769
 Sum of electronic and zero-point Energies=           -326.995462
 Sum of electronic and thermal Energies=              -326.988766
 Sum of electronic and thermal Enthalpies=            -326.987822
 Sum of electronic and thermal Free Energies=         -327.025682

                     E (Thermal)             CV                S
                      KCal/Mol        Cal/Mol-Kelvin    Cal/Mol-Kelvin
 Total                  107.107             26.261             79.684
 Electronic               0.000              0.000              0.000
 Translational            0.889              2.981             39.750
 Rotational               0.889              2.981             27.347
 Vibrational            105.329             20.299             12.586
 Vibration     1          0.624              1.883              2.467
 Vibration     2          0.654              1.790              1.855
 Vibration     3          0.678              1.715              1.550
 Vibration     4          0.723              1.587              1.193
 Vibration     5          0.735              1.555              1.122
 Vibration     6          0.778              1.438              0.910
 Vibration     7          0.830              1.311              0.730
 Vibration     8          0.840              1.285              0.699
 Vibration     9          0.973              1.003              0.427

 Optimization completed.
    -- Stationary point found.
 Normal termination of Gaussian 16 at Wed May  4 11:13:50 2022.

 ----------------------------------------------------------------------
 # M062X/def2tzvp int=(grid=ultrafine) pop=nbo7 polar prop=efg volume g
 uess=read geom=check
 ----------------------------------------------------------------------

 ------
 N5.xyz
 ------
 Structure from the checkpoint file:  "N5_conf-4-1.chk"
 Charge =  0 Multiplicity = 1

 SCF Done:  E(RM062X) =  -327.098243863     A.U. after   11 cycles

  Exact polarizability:      74.184      -0.715      72.100       1.607       0.346      61.529
 Approx polarizability:      80.396      -0.852      82.064       0.198       0.765      81.144

 Summary of Natural Population Analysis:

                                     Natural Population
             Natural    ---------------------------------------------
  Atom No    Charge        Core      Valence    Rydberg      Total
 --------------------------------------------------------------------
    N  1   -0.82159      1.99999     5.79685    0.02474     7.82159
    C  2   -0.04309      1.99999     4.02905    0.01404     6.04309
    C  3   -0.44423      1.99999     4.43144    0.01280     6.44423
    C  4   -0.07208      1.99999     4.05493    0.01716     6.07208
    O  5   -0.50880      2.00000     6.48687    0.02194     8.50880
    C  6   -0.07073      1.99999     4.05393    0.01682     6.07073
    C  7   -0.43221      1.99999     4.41912    0.01310     6.43221
    H  8    0.34627      0.00000     0.65151    0.00223     0.65373
    H  9    0.35220      0.00000     0.64596    0.00184     0.64780
    H 10    0.17964      0.00000     0.81763    0.00272     0.82036
    H 11    0.19883      0.00000     0.79893    0.00224     0.80117
    H 12    0.20624      0.00000     0.79218    0.00158     0.79376
    H 13    0.15275      0.00000     0.84438    0.00287     0.84725
    H 14    0.19234      0.00000     0.80598    0.00168     0.80766
    H 15    0.15310      0.00000     0.84409    0.00281     0.84690
    H 16    0.19255      0.00000     0.80582    0.00162     0.80745
    H 17    0.22150      0.00000     0.77705    0.00146     0.77850
    H 18    0.19732      0.00000     0.80067    0.00201     0.80268
 ====================================================================
 * Total *  0.00000     13.99995    41.85639    0.14366    56.00000

 Normal termination of Gaussian 16 at Wed May  4 11:14:52 2022.
 Gaussian 16:  ES64L-G16RevC.01  3-Jul-2019

 --------------------------------------------------------------------
 # M062X/def2tzvp int=(grid=ultrafine) nmr=giao guess=read geom=check
 --------------------------------------------------------------------

 ------
 N5.xyz
 ------
 Structure from the checkpoint file:  "N5_conf-4-1.chk"
 Charge =  0 Multiplicity = 1

                         Standard orientation:
 ---------------------------------------------------------------------
 Center     Atomic      Atomic             Coordinates (Angstroms)
 Number     Number       Type             X           Y           Z
 ---------------------------------------------------------------------
      1          7           0       -2.434979   -0.102961   -0.026971
      2          6           0       -1.018992   -0.011558    0.336668
      3          6           0       -0.288418    1.244030   -0.173438
      4          6           0        1.201623    1.185385    0.171293
      5          8           0        1.811018    0.010852   -0.345078
      6          6           0        1.214778   -1.166126    0.185160
      7          6           0       -0.273258   -1.255555   -0.156372
      8          1           0       -2.518226   -0.085099   -1.042828
      9          1           0       -2.926848    0.724528    0.305831
     10          1           0       -0.973454   -0.005914    1.435946
     11          1           0       -0.399212    1.302813   -1.264378
     12          1           0       -0.736803    2.150484    0.253503
     13          1           0        1.331877    1.226192    1.267248
     14          1           0        1.745530    2.029194   -0.262217
     15          1           0        1.347315   -1.191558    1.281009
     16          1           0        1.769887   -2.007050   -0.239232
     17          1           0       -0.716642   -2.155886    0.281583
     18          1           0       -0.381116   -1.330843   -1.246905
 ---------------------------------------------------------------------

 SCF Done:  E(RM062X) =  -327.098243863     A.U. after    1 cycles

      1  N    Isotropic =   203.7325   Anisotropy =    55.3922

      2  C    Isotropic =   132.5376   Anisotropy =    37.0766

      3  C    Isotropic =   140.0308   Anisotropy =    27.0600

      4  C    Isotropic =   115.1961   Anisotropy =    67.8405

      5  O    Isotropic =   284.8156   Anisotropy =    69.7017

      6  C    Isotropic =   113.9790   Anisotropy =    66.5878

      7  C    Isotropic =   146.8239   Anisotropy =    17.8196

      8  H    Isotropic =    31.9522   Anisotropy =    11.3893

      9  H    Isotropic =    31.2361   Anisotropy =    13.6233

     10  H    Isotropic =    29.4798   Anisotropy =     5.7053

     11  H    Isotropic =    30.7918   Anisotropy =     5.9613

     12  H    Isotropic =    30.4346   Anisotropy =     6.9583

     13  H    Isotropic =    28.7248   Anisotropy =     7.6868

     14  H    Isotropic =    28.0574   Anisotropy =     7.9136

     15  H    Isotropic =    28.6834   Anisotropy =     7.7166

     16  H    Isotropic =    27.9774   Anisotropy =     7.8212

     17  H    Isotropic =    30.1910   Anisotropy =     8.0289

     18  H    Isotropic =    30.8691   Anisotropy =     6.4480

 The electronic state is 1-A.
 Alpha  occ. eigenvalues --  -19.62428 -14.72859 -10.58207 -10.58053 -10.56723
 Alpha  occ. eigenvalues --  -10.53312 -10.53060  -1.15525  -0.99687  -0.86826
 Alpha  occ. eigenvalues --   -0.86008  -0.72623  -0.71493  -0.65224  -0.57262
 Alpha  occ. eigenvalues --   -0.56089  -0.54358  -0.52685  -0.50072  -0.49077
 Alpha  occ. eigenvalues --   -0.46670  -0.45100  -0.41705  -0.40382  -0.39318
 Alpha  occ. eigenvalues --   -0.37043  -0.32943  -0.30792
 Alpha virt. eigenvalues --    0.06312   0.07428   0.09047   0.09893   0.12357
 Alpha virt. eigenvalues --    0.12829   0.14190   0.14296   0.15158   0.15347
 Alpha virt. eigenvalues --    0.16412   0.17180   0.18519   0.22385   0.22787

 Mulliken charges:
               1
     1  N   -0.527690
     2  C   -0.059418
     3  C   -0.265056
     4  C   -0.135834
     5  O   -0.308172
     6  C   -0.135395
     7  C   -0.262026
     8  H    0.226142
     9  H    0.223132
    10  H    0.138641
    11  H    0.136075
    12  H    0.134472
    13  H    0.134439
    14  H    0.137630
    15  H    0.135258
    16  H    0.137886
    17  H    0.151731
    18  H    0.138187
 Sum of Mulliken charges =  -0.00000

 Dipole moment (field-independent basis, Debye):
    X=             -0.6985    Y=              1.1036    Z=              0.3026  Tot=              1.3406
 Quadrupole moment (field-independent basis, Debye-Ang):
   XX=            -50.3554   YY=            -41.7526   ZZ=            -43.3285
   XY=             -4.0235   XZ=              3.1365   YZ=              0.6900

 Normal termination of Gaussian 16 at Wed May  4 11:15:15 2022.
