 Gaussian 16, Revision C.01,

 ----------------------------------------------------------------------
 # B3LYP/6-31G(d,p) empiricaldispersion=GD3BJ int=(grid=ultrafine) opt
 freq=noraman
 ----------------------------------------------------------------------

 ---------
 SecN5.xyz
 ---------
 Symbolic Z-matrix:
 Charge =  0 Multiplicity = 1

 SCF Done:  E(RB3LYP) =  -808.761009927     A.U. after   14 cycles
 SCF Done:  E(RB3LYP) =  -808.768989092     A.U. after   12 cycles
 SCF Done:  E(RB3LYP) =  -808.770621727     A.U. after   11 cycles
 SCF Done:  E(RB3LYP) =  -808.771110867     A.U. after   11 cycles
 SCF Done:  E(RB3LYP) =  -808.771306706     A.U. after   11 cycles
 SCF Done:  E(RB3LYP) =  -808.771440756     A.U. after   11 cycles
 SCF Done:  E(RB3LYP) =  -808.771519635     A.U. after   10 cycles
 SCF Done:  E(RB3LYP) =  -808.771543097     A.U. after   10 cycles
 SCF Done:  E(RB3LYP) =  -808.771564794     A.U. after   10 cycles
 SCF Done:  E(RB3LYP) =  -808.771575762     A.U. after    9 cycles
 SCF Done:  E(RB3LYP) =  -808.776094287     A.U. after   10 cycles
 SCF Done:  E(RB3LYP) =  -808.776131687     A.U. after   10 cycles
 SCF Done:  E(RB3LYP) =  -808.776158267     A.U. after   11 cycles
 SCF Done:  E(RB3LYP) =  -808.776171874     A.U. after   11 cycles
 SCF Done:  E(RB3LYP) =  -808.776172818     A.U. after    8 cycles
 SCF Done:  E(RB3LYP) =  -808.776173264     A.U. after    8 cycles
 SCF Done:  E(RB3LYP) =  -808.776173320     A.U. after    7 cycles
 Optimization completed.
    -- Stationary point found.
 Normal termination of Gaussian 16 at Fri Sep 23 16:31:57 2022.

 ----------------------------------------------------------------------
 #N Geom=AllCheck Guess=TCheck SCRF=Check GenChk RB3LYP/6-31G(d,p) Freq
 ----------------------------------------------------------------------

 Structure from the checkpoint file:  "SecN5_clust-10.chk"
 ---------
 SecN5.xyz
 ---------
 Charge =  0 Multiplicity = 1

 SCF Done:  E(RB3LYP) =  -808.776173320     A.U. after    1 cycles

                      1                      2                      3
                      A                      A                      A
 Frequencies --     22.7180                34.9203                55.1314
 Red. masses --      4.0503                 3.4070                 3.5549
 Frc consts  --      0.0012                 0.0024                 0.0064
 IR Inten    --      0.3208                 0.0223                 0.9608

                      4                      5                      6
                      A                      A                      A
 Frequencies --     61.1950                97.7095               113.9780
 Red. masses --      3.3880                 3.7538                 3.3035
 Frc consts  --      0.0075                 0.0211                 0.0253
 IR Inten    --      0.8935                 1.2554                 2.4059

                      7                      8                      9
                      A                      A                      A
 Frequencies --    126.1352               156.0835               157.9665
 Red. masses --      2.4276                 2.7947                 3.3297
 Frc consts  --      0.0228                 0.0401                 0.0490
 IR Inten    --      1.0181                 0.5325                 1.1987

                     10                     11                     12
                      A                      A                      A
 Frequencies --    223.1423               242.4491               262.9983
 Red. masses --      2.9131                 1.9906                 1.7308
 Frc consts  --      0.0855                 0.0689                 0.0705
 IR Inten    --      0.1272                 1.5307                 0.4425

                     13                     14                     15
                      A                      A                      A
 Frequencies --    275.0226               310.4593               311.9010
 Red. masses --      3.0061                 2.5405                 2.8739
 Frc consts  --      0.1340                 0.1443                 0.1647
 IR Inten    --      0.4811                 3.8538                 0.6891

                     16                     17                     18
                      A                      A                      A
 Frequencies --    331.3710               353.7660               374.3046
 Red. masses --      3.7081                 3.1955                 3.3166
 Frc consts  --      0.2399                 0.2356                 0.2738
 IR Inten    --      1.3117                 0.2142                 1.8603

                     19                     20                     21
                      A                      A                      A
 Frequencies --    381.4354               453.1481               470.3967
 Red. masses --      3.4540                 2.8329                 3.4384
 Frc consts  --      0.2961                 0.3427                 0.4483
 IR Inten    --      3.8810                 3.6173                 0.1376

                     22                     23                     24
                      A                      A                      A
 Frequencies --    490.2020               497.6206               538.0085
 Red. masses --      2.9791                 3.8179                 3.6822
 Frc consts  --      0.4218                 0.5570                 0.6280
 IR Inten    --      0.3010                 5.0802                 2.5393

                     25                     26                     27
                      A                      A                      A
 Frequencies --    561.5121               570.4066               598.7337
 Red. masses --      3.7761                 4.2848                 3.0712
 Frc consts  --      0.7015                 0.8214                 0.6487
 IR Inten    --      0.6967                 0.7787                 2.0033

                     28                     29                     30
                      A                      A                      A
 Frequencies --    626.0761               647.1990               702.8952
 Red. masses --      5.4266                 4.2884                 4.3930
 Frc consts  --      1.2532                 1.0583                 1.2788
 IR Inten    --      1.3343                13.1583                 2.4285

                     31                     32                     33
                      A                      A                      A
 Frequencies --    730.4948               752.4688               762.4916
 Red. masses --      3.2491                 1.5608                 1.3388
 Frc consts  --      1.0215                 0.5207                 0.4586
 IR Inten    --      0.5874                27.3710                18.8268

                     34                     35                     36
                      A                      A                      A
 Frequencies --    767.7797               777.7511               788.4980
 Red. masses --      2.0818                 1.8569                 2.7746
 Frc consts  --      0.7230                 0.6618                 1.0164
 IR Inten    --     37.6938                31.9472                10.7378

                     37                     38                     39
                      A                      A                      A
 Frequencies --    804.5224               826.4583               865.8175
 Red. masses --      1.8210                 2.0510                 1.4017
 Frc consts  --      0.6944                 0.8254                 0.6191
 IR Inten    --     56.1892                37.9288                 1.2758

                     40                     41                     42
                      A                      A                      A
 Frequencies --    874.5977               886.8838               895.9750
 Red. masses --      1.7141                 1.8320                 2.2668
 Frc consts  --      0.7725                 0.8490                 1.0722
 IR Inten    --      3.6408                 1.9646                 1.7128

                     43                     44                     45
                      A                      A                      A
 Frequencies --    936.1160               945.6666               949.3060
 Red. masses --      1.5530                 1.4036                 1.7465
 Frc consts  --      0.8018                 0.7395                 0.9273
 IR Inten    --      6.4381                 6.0355                10.9890

                     46                     47                     48
                      A                      A                      A
 Frequencies --    958.1542               972.4240               974.9239
 Red. masses --      2.0302                 1.2470                 2.2359
 Frc consts  --      1.0981                 0.6947                 1.2521
 IR Inten    --      1.3194                 2.1406                 0.5624

                     49                     50                     51
                      A                      A                      A
 Frequencies --    980.4172              1046.7851              1055.8430
 Red. masses --      1.2644                 2.4752                 2.5293
 Frc consts  --      0.7161                 1.5980                 1.6613
 IR Inten    --      0.2320                 3.0383                 2.1921

                     52                     53                     54
                      A                      A                      A
 Frequencies --   1060.1446              1070.8592              1081.3257
 Red. masses --      1.7510                 2.6904                 2.2951
 Frc consts  --      1.1595                 1.8177                 1.5812
 IR Inten    --     16.2458                10.4746                12.1975

                     55                     56                     57
                      A                      A                      A
 Frequencies --   1089.2192              1101.8277              1138.7154
 Red. masses --      2.5237                 2.1184                 1.9027
 Frc consts  --      1.7641                 1.5153                 1.4536
 IR Inten    --      6.7135                10.1848                18.7986

                     58                     59                     60
                      A                      A                      A
 Frequencies --   1142.5090              1156.9135              1172.7225
 Red. masses --      1.8004                 1.8813                 1.9381
 Frc consts  --      1.3846                 1.4836                 1.5704
 IR Inten    --     15.4374                17.0668                37.6021

                     61                     62                     63
                      A                      A                      A
 Frequencies --   1184.1284              1188.1304              1189.9124
 Red. masses --      1.7084                 1.2152                 1.1054
 Frc consts  --      1.4113                 1.0107                 0.9221
 IR Inten    --      6.0947                 2.5488                 0.0899

                     64                     65                     66
                      A                      A                      A
 Frequencies --   1197.1323              1217.7001              1233.2586
 Red. masses --      1.2233                 1.6917                 2.2467
 Frc consts  --      1.0329                 1.4779                 2.0132
 IR Inten    --      0.6087                 0.8187                11.3309

                     67                     68                     69
                      A                      A                      A
 Frequencies --   1245.1531              1264.8406              1268.1643
 Red. masses --      1.5049                 1.5490                 2.3998
 Frc consts  --      1.3747                 1.4601                 2.2739
 IR Inten    --     23.4384                79.7642                43.2301

                     70                     71                     72
                      A                      A                      A
 Frequencies --   1286.8978              1299.7381              1323.0380
 Red. masses --      1.4462                 1.5135                 1.2535
 Frc consts  --      1.4111                 1.5064                 1.2928
 IR Inten    --     15.6965                16.5815                27.3464

                     73                     74                     75
                      A                      A                      A
 Frequencies --   1332.1847              1345.6446              1356.4011
 Red. masses --      1.6484                 6.3018                 1.4302
 Frc consts  --      1.7236                 6.7232                 1.5503
 IR Inten    --      3.8309                18.8011                 4.0407

                     76                     77                     78
                      A                      A                      A
 Frequencies --   1361.7180              1367.5510              1393.5938
 Red. masses --      2.8591                 1.6461                 1.4572
 Frc consts  --      3.1236                 1.8138                 1.6674
 IR Inten    --      0.7755                 3.3136                 2.9814

                     79                     80                     81
                      A                      A                      A
 Frequencies --   1401.3630              1410.3812              1418.8529
 Red. masses --      1.3876                 1.7144                 1.3598
 Frc consts  --      1.6056                 2.0093                 1.6129
 IR Inten    --     28.8505                54.7223                29.0653

                     82                     83                     84
                      A                      A                      A
 Frequencies --   1471.3607              1487.1284              1488.0018
 Red. masses --      1.1789                 1.3768                 1.5513
 Frc consts  --      1.5037                 1.7940                 2.0237
 IR Inten    --      2.3237                10.9518                17.7902

                     85                     86                     87
                      A                      A                      A
 Frequencies --   1494.1779              1497.2348              1502.9740
 Red. masses --      1.3139                 1.3296                 1.4802
 Frc consts  --      1.7283                 1.7561                 1.9700
 IR Inten    --     25.1497                 6.3349                31.6912

                     88                     89                     90
                      A                      A                      A
 Frequencies --   1504.4295              1507.6889              1515.6351
 Red. masses --      1.0538                 1.2796                 1.0926
 Frc consts  --      1.4052                 1.7138                 1.4788
 IR Inten    --      9.0617                 3.6329                 5.6380

                     91                     92                     93
                      A                      A                      A
 Frequencies --   1527.1069              1533.1383              1538.0235
 Red. masses --      1.0916                 1.0609                 2.4105
 Frc consts  --      1.4999                 1.4693                 3.3596
 IR Inten    --      7.7840                 2.3787               182.1910

                     94                     95                     96
                      A                      A                      A
 Frequencies --   1548.4321              1627.7987              1639.3846
 Red. masses --      2.4911                 6.0367                 6.5346
 Frc consts  --      3.5190                 9.4244                10.3474
 IR Inten    --     27.1185                14.3614                 6.2592

                     97                     98                     99
                      A                      A                      A
 Frequencies --   1655.4048              1664.3703              2941.3099
 Red. masses --      5.7686                 5.6713                 1.0723
 Frc consts  --      9.3138                 9.2562                 5.4657
 IR Inten    --     34.1395                14.7616                70.5840

                    100                    101                    102
                      A                      A                      A
 Frequencies --   2955.1542              3022.3950              3034.0923
 Red. masses --      1.0598                 1.0646                 1.0849
 Frc consts  --      5.4530                 5.7296                 5.8843
 IR Inten    --    163.9440                27.1443                10.8595

                    103                    104                    105
                      A                      A                      A
 Frequencies --   3043.0706              3047.2545              3054.2449
 Red. masses --      1.0672                 1.0634                 1.0659
 Frc consts  --      5.8225                 5.8179                 5.8585
 IR Inten    --     15.4569                16.5159                51.4953

                    106                    107                    108
                      A                      A                      A
 Frequencies --   3067.7139              3071.2814              3096.4465
 Red. masses --      1.0953                 1.0753                 1.0986
 Frc consts  --      6.0730                 5.9759                 6.2060
 IR Inten    --     45.4623                35.4545                20.1981

                    109                    110                    111
                      A                      A                      A
 Frequencies --   3097.6271              3117.8074              3119.5707
 Red. masses --      1.1041                 1.1012                 1.1023
 Frc consts  --      6.2417                 6.3067                 6.3204
 IR Inten    --     26.3620                24.3574                27.0095

                    112                    113                    114
                      A                      A                      A
 Frequencies --   3163.8862              3173.0499              3180.7400
 Red. masses --      1.0875                 1.0870                 1.0884
 Frc consts  --      6.4138                 6.4479                 6.4878
 IR Inten    --     13.3383                 7.9972                18.8902

                    115                    116                    117
                      A                      A                      A
 Frequencies --   3185.7940              3203.4912              3203.7779
 Red. masses --      1.0892                 1.0964                 1.0964
 Frc consts  --      6.5132                 6.6294                 6.6303
 IR Inten    --     14.2441                50.5818                17.1986

                    118                    119                    120
                      A                      A                      A
 Frequencies --   3242.3974              3242.9352              3508.9281
 Red. masses --      1.0912                 1.0907                 1.0741
 Frc consts  --      6.7594                 6.7580                 7.7916
 IR Inten    --      8.0132                 1.8753                 0.8686

 - Thermochemistry -
 -------------------
 Temperature   298.150 Kelvin.  Pressure   1.00000 Atm.
 Atom     1 has atomic number  6 and mass  12.00000

 Molecular mass:   266.17830 amu.
 Principal axes and moments of inertia in atomic units:
                           1         2         3
     Eigenvalues --  4221.352926663.95115**********
           X            0.99924   0.03887   0.00056
           Y           -0.03887   0.99924   0.00399
           Z           -0.00040  -0.00400   0.99999
 This molecule is an asymmetric top.
 Rotational symmetry number  1.
 Warning -- assumption of classical behavior for rotation
           may cause significant error
 Rotational temperatures (Kelvin)      0.02052     0.01300     0.00866
 Rotational constants (GHZ):           0.42753     0.27082     0.18047
 Zero-point vibrational energy     962261.4 (Joules/Mol)
                                  229.98599 (Kcal/Mol)
 Warning -- explicit consideration of  27 degrees of freedom as
           vibrations may cause significant error
 Vibrational temperatures:     32.69    50.24    79.32    88.05   140.58
          (Kelvin)            163.99   181.48   224.57   227.28   321.05
                              348.83   378.40   395.70   446.68   448.76
                              476.77   508.99   538.54   548.80   651.98
                              676.80   705.29   715.97   774.07   807.89
                              820.69   861.44   900.78   931.18  1011.31
                             1051.02  1082.63  1097.06  1104.66  1119.01
                             1134.47  1157.53  1189.09  1245.72  1258.35
                             1276.03  1289.11  1346.86  1360.60  1365.84
                             1378.57  1399.10  1402.70  1410.60  1506.09
                             1519.12  1525.31  1540.73  1555.79  1567.14
                             1585.28  1638.36  1643.82  1664.54  1687.29
                             1703.70  1709.45  1712.02  1722.41  1752.00
                             1774.38  1791.50  1819.82  1824.61  1851.56
                             1870.03  1903.56  1916.72  1936.08  1951.56
                             1959.21  1967.60  2005.07  2016.25  2029.22
                             2041.41  2116.96  2139.65  2140.90  2149.79
                             2154.19  2162.44  2164.54  2169.23  2180.66
                             2197.17  2205.84  2212.87  2227.85  2342.04
                             2358.71  2381.76  2394.66  4231.89  4251.81
                             4348.55  4365.38  4378.30  4384.32  4394.38
                             4413.76  4418.89  4455.10  4456.79  4485.83
                             4488.37  4552.13  4565.31  4576.38  4583.65
                             4609.11  4609.52  4665.09  4665.86  5048.56

 Zero-point correction=                           0.366506 (Hartree/Particle)
 Thermal correction to Energy=                    0.384183
 Thermal correction to Enthalpy=                  0.385127
 Thermal correction to Gibbs Free Energy=         0.319905
 Sum of electronic and zero-point Energies=           -808.409667
 Sum of electronic and thermal Energies=              -808.391991
 Sum of electronic and thermal Enthalpies=            -808.391047
 Sum of electronic and thermal Free Energies=         -808.456268

                     E (Thermal)             CV                S
                      KCal/Mol        Cal/Mol-Kelvin    Cal/Mol-Kelvin
 Total                  241.078             70.416            137.270
 Electronic               0.000              0.000              0.000
 Translational            0.889              2.981             42.636
 Rotational               0.889              2.981             33.997
 Vibrational            239.301             64.455             60.637
 Vibration     1          0.593              1.985              6.381
 Vibration     2          0.594              1.983              5.528
 Vibration     3          0.596              1.976              4.624
 Vibration     4          0.597              1.973              4.418
 Vibration     5          0.603              1.951              3.500
 Vibration     6          0.607              1.938              3.200
 Vibration     7          0.611              1.927              3.004
 Vibration     8          0.620              1.896              2.597
 Vibration     9          0.621              1.894              2.574
 Vibration    10          0.649              1.806              1.933
 Vibration    11          0.659              1.775              1.785
 Vibration    12          0.670              1.741              1.642
 Vibration    13          0.677              1.720              1.564
 Vibration    14          0.699              1.654              1.360
 Vibration    15          0.700              1.651              1.352
 Vibration    16          0.714              1.613              1.253
 Vibration    17          0.730              1.568              1.149
 Vibration    18          0.745              1.525              1.062
 Vibration    19          0.751              1.510              1.033
 Vibration    20          0.812              1.354              0.786
 Vibration    21          0.827              1.316              0.736
 Vibration    22          0.846              1.272              0.683
 Vibration    23          0.853              1.255              0.664
 Vibration    24          0.893              1.166              0.570
 Vibration    25          0.917              1.115              0.521
 Vibration    26          0.927              1.095              0.503
 Vibration    27          0.957              1.034              0.452

 Optimization completed.
    -- Stationary point found.
 Normal termination of Gaussian 16 at Fri Sep 23 16:35:40 2022.

 ----------------------------------------------------------------------
 # M062X/def2tzvp int=(grid=ultrafine) pop=nbo7 polar prop=efg volume g
 uess=read geom=check
 ----------------------------------------------------------------------

 ---------
 SecN5.xyz
 ---------
 Structure from the checkpoint file:  "SecN5_clust-10.chk"
 Charge =  0 Multiplicity = 1

 SCF Done:  E(RM062X) =  -808.592155062     A.U. after   11 cycles

  Exact polarizability:     263.431     -17.139     251.205      11.157       7.322     154.430
 Approx polarizability:     306.903     -12.383     303.155      18.398      11.723     222.306

 Summary of Natural Population Analysis:

                                     Natural Population
             Natural    ---------------------------------------------
  Atom No    Charge        Core      Valence    Rydberg      Total
 --------------------------------------------------------------------
    C  1   -0.40791      1.99999     4.39597    0.01195     6.40791
    N  2   -0.63175      1.99999     5.60622    0.02553     7.63175
    C  3   -0.21586      1.99999     4.20183    0.01404     6.21586
    C  4   -0.42547      1.99999     4.41393    0.01154     6.42547
    C  5   -0.21063      1.99999     4.19626    0.01437     6.21063
    N  6   -0.45098      1.99999     5.42665    0.02433     7.45098
    C  7    0.15808      1.99999     3.82389    0.01804     5.84192
    C  8   -0.02456      1.99999     4.00714    0.01743     6.02456
    C  9   -0.41654      1.99999     4.40487    0.01168     6.41654
    C 10   -0.40147      1.99999     4.39058    0.01090     6.40147
    C 11   -0.06423      1.99999     4.04800    0.01624     6.06423
    C 12    0.18022      1.99999     3.80295    0.01685     5.81978
    C 13   -0.26150      1.99999     4.24489    0.01661     6.26150
    C 14   -0.20096      1.99999     4.18447    0.01649     6.20096
    C 15   -0.24306      1.99999     4.22601    0.01706     6.24306
    C 16   -0.18768      1.99999     4.17159    0.01609     6.18768
    C 17   -0.20680      1.99999     4.19026    0.01655     6.20680
    C 18   -0.21621      1.99999     4.19975    0.01647     6.21621
    C 19   -0.21360      1.99999     4.19723    0.01638     6.21360
    C 20   -0.22617      1.99999     4.21011    0.01607     6.22617
    H 21    0.20206      0.00000     0.79686    0.00109     0.79794
    H 22    0.16340      0.00000     0.83393    0.00266     0.83660
    H 23    0.19174      0.00000     0.80677    0.00148     0.80826
    H 24    0.34890      0.00000     0.64843    0.00267     0.65110
    H 25    0.18609      0.00000     0.81167    0.00224     0.81391
    H 26    0.16920      0.00000     0.82788    0.00292     0.83080
    H 27    0.20886      0.00000     0.78973    0.00141     0.79114
    H 28    0.20417      0.00000     0.79411    0.00172     0.79583
    H 29    0.22282      0.00000     0.77484    0.00235     0.77718
    H 30    0.20210      0.00000     0.79578    0.00212     0.79790
    H 31    0.22093      0.00000     0.77726    0.00181     0.77907
    H 32    0.21294      0.00000     0.78558    0.00147     0.78706
    H 33    0.21350      0.00000     0.78490    0.00160     0.78650
    H 34    0.21338      0.00000     0.78463    0.00200     0.78662
    H 35    0.22481      0.00000     0.77294    0.00225     0.77519
    H 36    0.20991      0.00000     0.78887    0.00122     0.79009
    H 37    0.21258      0.00000     0.78625    0.00117     0.78742
    H 38    0.20498      0.00000     0.79366    0.00137     0.79502
    H 39    0.21022      0.00000     0.78835    0.00143     0.78978
    H 40    0.21426      0.00000     0.78460    0.00114     0.78574
    H 41    0.21369      0.00000     0.78513    0.00118     0.78631
    H 42    0.21654      0.00000     0.78204    0.00142     0.78346
 ====================================================================
 * Total *  0.00000     39.99984   103.63683    0.36332   144.00000

 1\1\GINC-NOTCH123\SP\RM062X\def2TZVP\C18H22N2\U6032257\23-Sep-2022\0\\
 # M062X/def2tzvp int=(grid=ultrafine) pop=nbo7 polar prop=efg volume g
 uess=read geom=check\\SecN5.xyz\\0,1\C,0,-2.1318373398,-2.047045424,4.
 1664206617\N,0,-1.3225748701,-2.2962627094,2.9800954759\C,0,0.11477048
 91,-2.2207453247,3.2274174466\C,0,0.8965209986,-2.3078568967,1.9150081
 99\C,0,0.754279811,-1.0128095602,1.0827259484\N,0,0.9230048921,-1.1084
 217558,-0.3696399153\C,0,2.2599813202,-1.1274826157,-0.8591652318\C,0,
 2.6911760739,-0.1630176416,-1.7862977942\C,0,1.6777307168,0.7608468713

 Normal termination of Gaussian 16 at Fri Sep 23 16:47:48 2022.
 Gaussian 16:  ES64L-G16RevC.01  3-Jul-2019

 --------------------------------------------------------------------
 # M062X/def2tzvp int=(grid=ultrafine) nmr=giao guess=read geom=check
 --------------------------------------------------------------------

 ---------
 SecN5.xyz
 ---------
 Structure from the checkpoint file:  "SecN5_clust-10.chk"
 Charge =  0 Multiplicity = 1

                         Standard orientation:
 ---------------------------------------------------------------------
 Center     Atomic      Atomic             Coordinates (Angstroms)
 Number     Number       Type             X           Y           Z
 ---------------------------------------------------------------------
      1          6           0       -5.304378   -1.034922    0.702227
      2          7           0       -3.988756   -0.875583    0.095489
      3          6           0       -3.192736   -2.099993    0.097468
      4          6           0       -1.766584   -1.820823   -0.381380
      5          6           0       -0.956067   -1.036956    0.676301
      6          7           0        0.160768   -0.210428    0.210996
      7          6           0        1.388913   -0.881834   -0.050496
      8          6           0        2.566136   -0.493814    0.612290
      9          6           0        2.548260    0.750955    1.447509
     10          6           0        2.339204    1.972473    0.539134
     11          6           0        0.925643    2.164626    0.018497
     12          6           0       -0.067059    1.155712   -0.077421
     13          6           0       -1.373899    1.545348   -0.443359
     14          6           0       -1.689965    2.861092   -0.756199
     15          6           0       -0.703798    3.843568   -0.724854
     16          6           0        0.576884    3.476898   -0.328898
     17          6           0        3.743301   -1.213509    0.395662
     18          6           0        3.769242   -2.322736   -0.448257
     19          6           0        2.604301   -2.701553   -1.112186
     20          6           0        1.427355   -1.979254   -0.922202
     21          1           0       -5.868843   -0.103323    0.604838
     22          1           0       -5.908206   -1.851997    0.268268
     23          1           0       -5.187440   -1.243251    1.771247
     24          1           0       -4.099335   -0.563113   -0.866526
     25          1           0       -3.161901   -2.473629    1.130499
     26          1           0       -3.646993   -2.907336   -0.505829
     27          1           0       -1.276840   -2.773512   -0.602711
     28          1           0       -1.798642   -1.258862   -1.322546
     29          1           0       -1.643466   -0.381599    1.216231
     30          1           0       -0.551583   -1.749777    1.404109
     31          1           0        1.745848    0.707136    2.192990
     32          1           0        3.495742    0.853283    1.985395
     33          1           0        2.610406    2.881485    1.087772
     34          1           0        3.048619    1.899227   -0.296186
     35          1           0       -2.165142    0.808912   -0.466835
     36          1           0       -2.710861    3.109746   -1.031509
     37          1           0       -0.929753    4.874886   -0.975685
     38          1           0        1.347269    4.240586   -0.251546
     39          1           0        4.649140   -0.900178    0.908106
     40          1           0        4.691118   -2.877369   -0.592954
     41          1           0        2.610379   -3.548422   -1.791711
     42          1           0        0.537887   -2.252482   -1.473830
 ---------------------------------------------------------------------

 SCF Done:  E(RM062X) =  -808.592155062     A.U. after    1 cycles

      1  C    Isotropic =   146.5106   Anisotropy =    60.9764

      2  N    Isotropic =   215.2016   Anisotropy =    73.2216

      3  C    Isotropic =   132.4693   Anisotropy =    45.6699

      4  C    Isotropic =   147.7296   Anisotropy =    29.7290

      5  C    Isotropic =   127.0815   Anisotropy =    65.4920

      6  N    Isotropic =   162.1393   Anisotropy =    65.2596

      7  C    Isotropic =    12.0924   Anisotropy =   173.8485

      8  C    Isotropic =    18.6296   Anisotropy =   223.4309

      9  C    Isotropic =   149.8863   Anisotropy =    20.7947

     10  C    Isotropic =   145.2971   Anisotropy =    28.0551

     11  C    Isotropic =    36.6670   Anisotropy =   193.5177

     12  C    Isotropic =    14.6001   Anisotropy =   176.3371

     13  C    Isotropic =    47.3388   Anisotropy =   187.5245

     14  C    Isotropic =    38.1488   Anisotropy =   207.8038

     15  C    Isotropic =    47.5142   Anisotropy =   197.2265

     16  C    Isotropic =    30.9598   Anisotropy =   187.3273

     17  C    Isotropic =    36.4904   Anisotropy =   183.3373

     18  C    Isotropic =    38.9047   Anisotropy =   207.3540

     19  C    Isotropic =    37.9428   Anisotropy =   207.6967

     20  C    Isotropic =    38.2110   Anisotropy =   190.9776

     21  H    Isotropic =    29.0155   Anisotropy =    10.0557

     22  H    Isotropic =    29.3881   Anisotropy =    10.3325

     23  H    Isotropic =    29.5755   Anisotropy =     8.7542

     24  H    Isotropic =    32.0514   Anisotropy =    10.3056

     25  H    Isotropic =    29.7744   Anisotropy =     4.9921

     26  H    Isotropic =    28.8653   Anisotropy =     8.4592

     27  H    Isotropic =    29.5502   Anisotropy =     7.7652

     28  H    Isotropic =    29.6805   Anisotropy =     2.0724

     29  H    Isotropic =    27.6936   Anisotropy =     6.9730

     30  H    Isotropic =    28.5861   Anisotropy =     5.0378

     31  H    Isotropic =    28.3698   Anisotropy =     3.0869

     32  H    Isotropic =    29.1732   Anisotropy =     9.2270

     33  H    Isotropic =    28.7968   Anisotropy =     9.3415

     34  H    Isotropic =    28.9959   Anisotropy =     5.9722

     35  H    Isotropic =    23.4554   Anisotropy =     9.3268

     36  H    Isotropic =    24.0740   Anisotropy =     7.2303

     37  H    Isotropic =    24.4793   Anisotropy =     4.9200

     38  H    Isotropic =    24.1521   Anisotropy =     9.1979

     39  H    Isotropic =    24.0333   Anisotropy =     7.9938

     40  H    Isotropic =    24.0325   Anisotropy =     5.2907

     41  H    Isotropic =    23.9729   Anisotropy =     6.5050

     42  H    Isotropic =    23.6969   Anisotropy =    11.1537

 The electronic state is 1-A.
 Alpha  occ. eigenvalues --  -14.75793 -14.73837 -10.57845 -10.57563 -10.56519
 Alpha  occ. eigenvalues --  -10.56434 -10.55647 -10.54384 -10.53969 -10.53940
 Alpha  occ. eigenvalues --  -10.53866 -10.53809 -10.53761 -10.53647 -10.53576
 Alpha  occ. eigenvalues --  -10.53529 -10.52914 -10.52894 -10.52407 -10.52340
 Alpha  occ. eigenvalues --   -1.05588  -1.01640  -0.95677  -0.94272  -0.89621
 Alpha  occ. eigenvalues --   -0.87236  -0.84677  -0.84505  -0.81574  -0.79798
 Alpha  occ. eigenvalues --   -0.76662  -0.73300  -0.72984  -0.68793  -0.68478
 Alpha  occ. eigenvalues --   -0.67100  -0.65813  -0.63995  -0.59008  -0.57702
 Alpha  occ. eigenvalues --   -0.56161  -0.54974  -0.54267  -0.53928  -0.53694
 Alpha  occ. eigenvalues --   -0.52357  -0.50917  -0.49596  -0.49454  -0.49265
 Alpha  occ. eigenvalues --   -0.47711  -0.47441  -0.46342  -0.45917  -0.45200
 Alpha  occ. eigenvalues --   -0.44370  -0.43862  -0.43338  -0.41975  -0.41846
 Alpha  occ. eigenvalues --   -0.41290  -0.40619  -0.39465  -0.38865  -0.38644
 Alpha  occ. eigenvalues --   -0.38062  -0.34514  -0.30204  -0.29800  -0.29338
 Alpha  occ. eigenvalues --   -0.28692  -0.23886
 Alpha virt. eigenvalues --    0.01766   0.02593   0.03276   0.04442   0.05780
 Alpha virt. eigenvalues --    0.07534   0.08063   0.08207   0.09200   0.09865
 Alpha virt. eigenvalues --    0.10242   0.11206   0.11832   0.12115   0.12834

 Mulliken charges:
               1
     1  C   -0.327103
     2  N   -0.371575
     3  C   -0.205960
     4  C   -0.372030
     5  C   -0.266923
     6  N   -0.175967
     7  C    0.070986
     8  C    0.083052
     9  C   -0.389244
    10  C   -0.312335
    11  C    0.071682
    12  C    0.141899
    13  C   -0.100958
    14  C   -0.202203
    15  C   -0.163731
    16  C   -0.198311
    17  C   -0.146535
    18  C   -0.152916
    19  C   -0.164480
    20  C   -0.189715
    21  H    0.141664
    22  H    0.126688
    23  H    0.145112
    24  H    0.219687
    25  H    0.155145
    26  H    0.136641
    27  H    0.142187
    28  H    0.203185
    29  H    0.200812
    30  H    0.178566
    31  H    0.178926
    32  H    0.150265
    33  H    0.147957
    34  H    0.171157
    35  H    0.066676
    36  H    0.133401
    37  H    0.134776
    38  H    0.133492
    39  H    0.137132
    40  H    0.140170
    41  H    0.139670
    42  H    0.189060
 Sum of Mulliken charges =   0.00000

 Dipole moment (field-independent basis, Debye):
    X=             -1.0357    Y=             -1.4905    Z=              0.0190  Tot=              1.8151
 Quadrupole moment (field-independent basis, Debye-Ang):
   XX=           -106.7031   YY=           -117.4955   ZZ=           -122.7599
   XY=              4.1318   XZ=              4.6344   YZ=              2.4849

 1\1\GINC-NOTCH123\SP\RM062X\def2TZVP\C18H22N2\U6032257\23-Sep-2022\0\\
 # M062X/def2tzvp int=(grid=ultrafine) nmr=giao guess=read geom=check\\
 SecN5.xyz\\0,1\C,0,-2.1318373398,-2.047045424,4.1664206617\N,0,-1.3225
 748701,-2.2962627094,2.9800954759\C,0,0.1147704891,-2.2207453247,3.227
 4174466\C,0,0.8965209986,-2.3078568967,1.915008199\C,0,0.754279811,-1.
 0128095602,1.0827259484\N,0,0.9230048921,-1.1084217558,-0.3696399153\C
 ,0,2.2599813202,-1.1274826157,-0.8591652318\C,0,2.6911760739,-0.163017
 6416,-1.7862977942\C,0,1.6777307168,0.7608468713,-2.391906533\C,0,0.71

 Normal termination of Gaussian 16 at Fri Sep 23 16:52:52 2022.
