 Gaussian 16, Revision C.01,

 ----------------------------------------------------------------------
 # B3LYP/6-31G(d,p) empiricaldispersion=GD3BJ int=(grid=ultrafine) opt
 freq=noraman
 ----------------------------------------------------------------------

 ---------
 SecN4.xyz
 ---------
 Symbolic Z-matrix:
 Charge =  0 Multiplicity = 1

 SCF Done:  E(RB3LYP) =  -135.180983479     A.U. after   11 cycles
 SCF Done:  E(RB3LYP) =  -135.182515123     A.U. after   10 cycles
 SCF Done:  E(RB3LYP) =  -135.182574150     A.U. after    9 cycles
 SCF Done:  E(RB3LYP) =  -135.182575538     A.U. after    7 cycles
 Optimization completed.
    -- Stationary point found.
 Normal termination of Gaussian 16 at Fri Sep 23 15:52:35 2022.

 ----------------------------------------------------------------------
 #N Geom=AllCheck Guess=TCheck SCRF=Check GenChk RB3LYP/6-31G(d,p) Freq
 ----------------------------------------------------------------------

 Structure from the checkpoint file:  "SecN4_conf-1.chk"
 ---------
 SecN4.xyz
 ---------
 Charge =  0 Multiplicity = 1

 SCF Done:  E(RB3LYP) =  -135.182575538     A.U. after    1 cycles

                      1                      2                      3
                      A                      A                      A
 Frequencies --    244.8071               273.2291               388.1807
 Red. masses --      1.0330                 1.2073                 2.1605
 Frc consts  --      0.0365                 0.0531                 0.1918
 IR Inten    --      0.1957                 2.6879                 6.1927

                      4                      5                      6
                      A                      A                      A
 Frequencies --    787.7153               954.4524              1039.7634
 Red. masses --      1.3177                 2.1686                 1.1794
 Frc consts  --      0.4817                 1.1640                 0.7512
 IR Inten    --    123.1372                 1.6376                 9.7180

                      7                      8                      9
                      A                      A                      A
 Frequencies --   1107.8991              1180.9163              1196.8716
 Red. masses --      1.3018                 3.6223                 1.4727
 Frc consts  --      0.9415                 2.9762                 1.2430
 IR Inten    --      0.0961                32.5097                 6.5235

                     10                     11                     12
                      A                      A                      A
 Frequencies --   1276.6850              1454.4626              1484.0661
 Red. masses --      1.7073                 1.1619                 1.1705
 Frc consts  --      1.6395                 1.4482                 1.5190
 IR Inten    --      0.1609                 3.0254                 1.2959

                     13                     14                     15
                      A                      A                      A
 Frequencies --   1484.1731              1497.5766              1511.3807
 Red. masses --      1.1984                 1.0498                 1.0698
 Frc consts  --      1.5553                 1.3872                 1.4398
 IR Inten    --      7.0890                 5.4394                 8.3612

                     16                     17                     18
                      A                      A                      A
 Frequencies --   1529.2131              1533.2747              2935.0286
 Red. masses --      1.0566                 1.0416                 1.0601
 Frc consts  --      1.4558                 1.4428                 5.3803
 IR Inten    --     11.0340                 0.6518                46.8704

                     19                     20                     21
                      A                      A                      A
 Frequencies --   2942.0817              3062.3307              3063.2728
 Red. masses --      1.0615                 1.0745                 1.0723
 Frc consts  --      5.4137                 5.9371                 5.9284
 IR Inten    --    154.7819                26.1595                56.0964

                     22                     23                     24
                      A                      A                      A
 Frequencies --   3112.6269              3113.4258              3522.6993
 Red. masses --      1.1019                 1.1015                 1.0743
 Frc consts  --      6.2897                 6.2908                 7.8546
 IR Inten    --     28.1222                39.9911                 0.8338

 - Thermochemistry -
 -------------------
 Temperature   298.150 Kelvin.  Pressure   1.00000 Atm.
 Atom     1 has atomic number  6 and mass  12.00000

 Molecular mass:    45.05785 amu.
 Principal axes and moments of inertia in atomic units:
                           1         2         3
     Eigenvalues --    52.26870 193.75151 219.51567
           X            1.00000   0.00000  -0.00000
           Y           -0.00000   0.99625   0.08653
           Z            0.00000  -0.08653   0.99625
 This molecule is an asymmetric top.
 Rotational symmetry number  1.
 Rotational temperatures (Kelvin)      1.65709     0.44704     0.39457
 Rotational constants (GHZ):          34.52814     9.31472     8.22147
 Zero-point vibrational energy     243416.9 (Joules/Mol)
                                   58.17804 (Kcal/Mol)
 Warning -- explicit consideration of   3 degrees of freedom as
           vibrations may cause significant error
 Vibrational temperatures:    352.22   393.12   558.51  1133.35  1373.24
          (Kelvin)           1495.99  1594.02  1699.08  1722.03  1836.86
                             2092.65  2135.24  2135.39  2154.68  2174.54
                             2200.20  2206.04  4222.85  4233.00  4406.01
                             4407.37  4478.38  4479.53  5068.38

 Zero-point correction=                           0.092713 (Hartree/Particle)
 Thermal correction to Energy=                    0.097078
 Thermal correction to Enthalpy=                  0.098023
 Thermal correction to Gibbs Free Energy=         0.067288
 Sum of electronic and zero-point Energies=           -135.089863
 Sum of electronic and thermal Energies=              -135.085497
 Sum of electronic and thermal Enthalpies=            -135.084553
 Sum of electronic and thermal Free Energies=         -135.115287

                     E (Thermal)             CV                S
                      KCal/Mol        Cal/Mol-Kelvin    Cal/Mol-Kelvin
 Total                   60.918             13.775             64.686
 Electronic               0.000              0.000              0.000
 Translational            0.889              2.981             37.342
 Rotational               0.889              2.981             22.324
 Vibrational             59.140              7.813              5.020
 Vibration     1          0.660              1.771              1.768
 Vibration     2          0.676              1.723              1.576
 Vibration     3          0.756              1.495              1.007

 Optimization completed.
    -- Stationary point found.
 Normal termination of Gaussian 16 at Fri Sep 23 15:52:42 2022.

 ----------------------------------------------------------------------
 # M062X/def2tzvp int=(grid=ultrafine) pop=nbo7 polar prop=efg volume g
 uess=read geom=check
 ----------------------------------------------------------------------

 ---------
 SecN4.xyz
 ---------
 Structure from the checkpoint file:  "SecN4_conf-1.chk"
 Charge =  0 Multiplicity = 1

 SCF Done:  E(RM062X) =  -135.141358095     A.U. after   11 cycles

  Exact polarizability:      39.062      -0.000      33.776      -0.000      -0.182      32.101
 Approx polarizability:      39.500      -0.000      39.248      -0.000       0.145      37.459

 Summary of Natural Population Analysis:

                                     Natural Population
             Natural    ---------------------------------------------
  Atom No    Charge        Core      Valence    Rydberg      Total
 --------------------------------------------------------------------
    C  1   -0.41281      1.99999     4.40084    0.01198     6.41281
    N  2   -0.61689      1.99999     5.58999    0.02691     7.61689
    C  3   -0.41281      1.99999     4.40084    0.01198     6.41281
    H  4    0.18914      0.00000     0.80925    0.00162     0.81086
    H  5    0.15965      0.00000     0.83740    0.00295     0.84035
    H  6    0.19927      0.00000     0.79969    0.00104     0.80073
    H  7    0.34639      0.00000     0.65135    0.00226     0.65361
    H  8    0.15965      0.00000     0.83740    0.00295     0.84035
    H  9    0.18914      0.00000     0.80925    0.00162     0.81086
    H 10    0.19927      0.00000     0.79969    0.00104     0.80073
 ====================================================================
 * Total *  0.00000      5.99998    19.93569    0.06433    26.00000

 Normal termination of Gaussian 16 at Fri Sep 23 15:52:51 2022.
 Gaussian 16:  ES64L-G16RevC.01  3-Jul-2019

 --------------------------------------------------------------------
 # M062X/def2tzvp int=(grid=ultrafine) nmr=giao guess=read geom=check
 --------------------------------------------------------------------

 ---------
 SecN4.xyz
 ---------
 Structure from the checkpoint file:  "SecN4_conf-1.chk"
 Charge =  0 Multiplicity = 1

                         Standard orientation:
 ---------------------------------------------------------------------
 Center     Atomic      Atomic             Coordinates (Angstroms)
 Number     Number       Type             X           Y           Z
 ---------------------------------------------------------------------
      1          6           0        1.211378   -0.222735    0.020419
      2          7           0       -0.000001    0.566914   -0.149944
      3          6           0       -1.211376   -0.222735    0.020419
      4          1           0        1.274536   -0.966860   -0.781987
      5          1           0        1.269457   -0.769372    0.980567
      6          1           0        2.089926    0.424604   -0.058347
      7          1           0        0.000000    1.327680    0.524119
      8          1           0       -1.269461   -0.769368    0.980569
      9          1           0       -1.274532   -0.966866   -0.781982
     10          1           0       -2.089928    0.424600   -0.058354
 ---------------------------------------------------------------------

 SCF Done:  E(RM062X) =  -135.141358095     A.U. after    1 cycles

      1  C    Isotropic =   145.3241   Anisotropy =    60.7131

      2  N    Isotropic =   235.0800   Anisotropy =    64.9932

      3  C    Isotropic =   145.3243   Anisotropy =    60.7129

      4  H    Isotropic =    29.7045   Anisotropy =     8.1012

      5  H    Isotropic =    29.6575   Anisotropy =     8.5371

      6  H    Isotropic =    29.2422   Anisotropy =     9.0447

      7  H    Isotropic =    32.2691   Anisotropy =    14.0354

      8  H    Isotropic =    29.6575   Anisotropy =     8.5371

      9  H    Isotropic =    29.7045   Anisotropy =     8.1012

     10  H    Isotropic =    29.2421   Anisotropy =     9.0447

 The electronic state is 1-A.
 Alpha  occ. eigenvalues --  -14.72880 -10.54922 -10.54921  -1.00325  -0.78984
 Alpha  occ. eigenvalues --   -0.71146  -0.55918  -0.51183  -0.50030  -0.44859
 Alpha  occ. eigenvalues --   -0.42434  -0.42090  -0.28878
 Alpha virt. eigenvalues --    0.06707   0.10569   0.11669   0.13575   0.14740
 Alpha virt. eigenvalues --    0.16734   0.17381   0.18551   0.22003   0.25405
 Alpha virt. eigenvalues --    0.25828   0.27670   0.33814   0.36321   0.36358

 Mulliken charges:
               1
     1  C   -0.322389
     2  N   -0.362926
     3  C   -0.322390
     4  H    0.139636
     5  H    0.121667
     6  H    0.138310
     7  H    0.208479
     8  H    0.121667
     9  H    0.139636
    10  H    0.138311
 Sum of Mulliken charges =  -0.00000

 Dipole moment (field-independent basis, Debye):
    X=              0.0000    Y=             -0.1957    Z=              1.0255  Tot=              1.0440
 Quadrupole moment (field-independent basis, Debye-Ang):
   XX=            -19.8565   YY=            -20.7126   ZZ=            -21.8669
   XY=              0.0000   XZ=              0.0000   YZ=              2.0842

 Normal termination of Gaussian 16 at Fri Sep 23 15:52:55 2022.
