 Gaussian 16, Revision C.01,

 ----------------------------------------------------------------------
 # B3LYP/6-31G(d,p) empiricaldispersion=GD3BJ int=(grid=ultrafine) opt
 freq=noraman
 ----------------------------------------------------------------------

 ---------
 SecN5.xyz
 ---------
 Symbolic Z-matrix:
 Charge =  0 Multiplicity = 1

 SCF Done:  E(RB3LYP) =  -808.770512557     A.U. after   14 cycles
 SCF Done:  E(RB3LYP) =  -808.776375916     A.U. after   12 cycles
 SCF Done:  E(RB3LYP) =  -808.776180254     A.U. after   12 cycles
 SCF Done:  E(RB3LYP) =  -808.776718476     A.U. after   12 cycles
 SCF Done:  E(RB3LYP) =  -808.778094132     A.U. after   11 cycles
 SCF Done:  E(RB3LYP) =  -808.778892129     A.U. after   12 cycles
 SCF Done:  E(RB3LYP) =  -808.779229860     A.U. after   12 cycles
 SCF Done:  E(RB3LYP) =  -808.779408645     A.U. after   11 cycles
 SCF Done:  E(RB3LYP) =  -808.779477662     A.U. after   11 cycles
 SCF Done:  E(RB3LYP) =  -808.779629285     A.U. after   11 cycles
 SCF Done:  E(RB3LYP) =  -808.779638930     A.U. after    8 cycles
 SCF Done:  E(RB3LYP) =  -808.779643893     A.U. after    9 cycles
 SCF Done:  E(RB3LYP) =  -808.779646715     A.U. after    8 cycles
 SCF Done:  E(RB3LYP) =  -808.779649758     A.U. after    9 cycles
 SCF Done:  E(RB3LYP) =  -808.779651498     A.U. after    9 cycles
 SCF Done:  E(RB3LYP) =  -808.779652213     A.U. after    8 cycles
 SCF Done:  E(RB3LYP) =  -808.779652262     A.U. after    7 cycles
 Optimization completed.
    -- Stationary point found.
 Normal termination of Gaussian 16 at Fri Sep 23 16:21:58 2022.

 ----------------------------------------------------------------------
 #N Geom=AllCheck Guess=TCheck SCRF=Check GenChk RB3LYP/6-31G(d,p) Freq
 ----------------------------------------------------------------------

 Structure from the checkpoint file:  "SecN5_clust-8.chk"
 ---------
 SecN5.xyz
 ---------
 Charge =  0 Multiplicity = 1

 SCF Done:  E(RB3LYP) =  -808.779652262     A.U. after    1 cycles

                      1                      2                      3
                      A                      A                      A
 Frequencies --     31.9107                45.8939                60.1249
 Red. masses --      3.9936                 4.3438                 2.3043
 Frc consts  --      0.0024                 0.0054                 0.0049
 IR Inten    --      0.8903                 0.0060                 2.4840

                      4                      5                      6
                      A                      A                      A
 Frequencies --     74.6211                85.6943                98.8042
 Red. masses --      4.0156                 3.1297                 3.5539
 Frc consts  --      0.0132                 0.0135                 0.0204
 IR Inten    --      0.0328                 0.2955                 0.7975

                      7                      8                      9
                      A                      A                      A
 Frequencies --    139.2206               152.6126               175.3234
 Red. masses --      3.6378                 2.9131                 3.5277
 Frc consts  --      0.0415                 0.0400                 0.0639
 IR Inten    --      0.1841                 0.3954                 0.2786

                     10                     11                     12
                      A                      A                      A
 Frequencies --    184.1626               235.1622               270.0011
 Red. masses --      2.5523                 1.1898                 3.6509
 Frc consts  --      0.0510                 0.0388                 0.1568
 IR Inten    --      3.1088                 2.2030                 0.1963

                     13                     14                     15
                      A                      A                      A
 Frequencies --    298.7760               319.1476               334.0850
 Red. masses --      2.6609                 4.4917                 3.1791
 Frc consts  --      0.1400                 0.2696                 0.2091
 IR Inten    --      0.9760                 1.8571                 3.4841

                     16                     17                     18
                      A                      A                      A
 Frequencies --    351.3571               380.0662               393.1232
 Red. masses --      2.8378                 3.2166                 2.1075
 Frc consts  --      0.2064                 0.2738                 0.1919
 IR Inten    --      2.8675                 1.8856                 5.9595

                     19                     20                     21
                      A                      A                      A
 Frequencies --    426.6010               450.2294               467.6275
 Red. masses --      3.4775                 2.7917                 3.7865
 Frc consts  --      0.3729                 0.3334                 0.4878
 IR Inten    --     12.5226                 5.4631                 1.2835

                     22                     23                     24
                      A                      A                      A
 Frequencies --    482.9978               500.8312               530.9343
 Red. masses --      2.7997                 2.7007                 3.2860
 Frc consts  --      0.3848                 0.3991                 0.5458
 IR Inten    --      2.8441                 1.2590                 0.7136

                     25                     26                     27
                      A                      A                      A
 Frequencies --    556.0466               577.5079               594.8743
 Red. masses --      3.9505                 4.7268                 3.5269
 Frc consts  --      0.7197                 0.9288                 0.7353
 IR Inten    --      0.9607                 0.6806                 6.4982

                     28                     29                     30
                      A                      A                      A
 Frequencies --    606.4037               638.7878               693.9817
 Red. masses --      2.9837                 5.7499                 2.9229
 Frc consts  --      0.6464                 1.3824                 0.8294
 IR Inten    --      9.4769                 4.0451                10.1724

                     31                     32                     33
                      A                      A                      A
 Frequencies --    708.5699               727.8832               758.1552
 Red. masses --      1.6360                 3.1919                 2.0944
 Frc consts  --      0.4839                 0.9964                 0.7093
 IR Inten    --     42.6381                 1.9785                16.0686

                     34                     35                     36
                      A                      A                      A
 Frequencies --    764.9015               778.9760               787.2782
 Red. masses --      1.4646                 1.7849                 2.9076
 Frc consts  --      0.5049                 0.6381                 1.0618
 IR Inten    --     18.5256                47.1553                 3.5579

                     37                     38                     39
                      A                      A                      A
 Frequencies --    797.2642               825.6313               850.2259
 Red. masses --      2.6880                 2.0153                 2.6224
 Frc consts  --      1.0067                 0.8094                 1.1169
 IR Inten    --      8.9667                 3.9653                13.1623

                     40                     41                     42
                      A                      A                      A
 Frequencies --    867.0036               880.0470               894.5756
 Red. masses --      1.3704                 1.4779                 2.7874
 Frc consts  --      0.6070                 0.6744                 1.3143
 IR Inten    --      1.7287                 0.6699                 4.1494

                     43                     44                     45
                      A                      A                      A
 Frequencies --    927.2346               939.6097               944.6181
 Red. masses --      2.0428                 1.9018                 1.3748
 Frc consts  --      1.0348                 0.9893                 0.7228
 IR Inten    --      8.6300                 1.0720                 3.0774

                     46                     47                     48
                      A                      A                      A
 Frequencies --    945.8330               974.1503               979.2946
 Red. masses --      1.9028                 1.2470                 1.2518
 Frc consts  --      1.0029                 0.6972                 0.7073
 IR Inten    --      6.6471                 0.0850                 0.0137

                     49                     50                     51
                      A                      A                      A
 Frequencies --    988.0586              1017.0753              1046.2312
 Red. masses --      2.1705                 1.8223                 2.0306
 Frc consts  --      1.2484                 1.1106                 1.3096
 IR Inten    --      0.9620                 6.8905                 6.4699

                     52                     53                     54
                      A                      A                      A
 Frequencies --   1054.5802              1075.3142              1081.6966
 Red. masses --      2.4700                 2.2162                 2.6523
 Frc consts  --      1.6185                 1.5098                 1.8284
 IR Inten    --      0.5473                 2.1402                 5.7075

                     55                     56                     57
                      A                      A                      A
 Frequencies --   1098.2518              1114.0434              1139.6906
 Red. masses --      2.1966                 2.2540                 1.9017
 Frc consts  --      1.5610                 1.6482                 1.4553
 IR Inten    --      6.3955                 6.4230                14.6249

                     58                     59                     60
                      A                      A                      A
 Frequencies --   1148.5202              1160.2133              1166.7994
 Red. masses --      1.6307                 1.5206                 2.5392
 Frc consts  --      1.2674                 1.2060                 2.0368
 IR Inten    --     25.8146                 0.6224                28.0169

                     61                     62                     63
                      A                      A                      A
 Frequencies --   1177.7743              1189.6256              1194.3786
 Red. masses --      1.7563                 1.0962                 1.2131
 Frc consts  --      1.4354                 0.9140                 1.0196
 IR Inten    --      5.3379                 0.3752                 0.3586

                     64                     65                     66
                      A                      A                      A
 Frequencies --   1198.2867              1208.6545              1232.1876
 Red. masses --      1.1529                 1.7503                 1.9094
 Frc consts  --      0.9754                 1.5065                 1.7081
 IR Inten    --      3.0281                 4.3163                23.0393

                     67                     68                     69
                      A                      A                      A
 Frequencies --   1240.5489              1253.7845              1259.9830
 Red. masses --      1.8489                 1.4665                 2.1231
 Frc consts  --      1.6764                 1.3583                 1.9858
 IR Inten    --     20.0607                21.8720                57.9981

                     70                     71                     72
                      A                      A                      A
 Frequencies --   1293.8926              1300.3260              1328.6760
 Red. masses --      1.5295                 1.4349                 1.6579
 Frc consts  --      1.5086                 1.4295                 1.7245
 IR Inten    --     23.1927                 7.4153                 3.0930

                     73                     74                     75
                      A                      A                      A
 Frequencies --   1338.2353              1342.1614              1359.9607
 Red. masses --      1.8509                 1.9479                 2.4132
 Frc consts  --      1.9530                 2.0674                 2.6296
 IR Inten    --     58.7132                18.7323                38.6611

                     76                     77                     78
                      A                      A                      A
 Frequencies --   1364.5968              1375.9605              1391.1892
 Red. masses --      3.1256                 1.5466                 1.3632
 Frc consts  --      3.4292                 1.7252                 1.5545
 IR Inten    --     12.9743                 3.3939                 7.2436

                     79                     80                     81
                      A                      A                      A
 Frequencies --   1396.7641              1402.6952              1421.5695
 Red. masses --      1.4677                 1.4598                 1.3838
 Frc consts  --      1.6871                 1.6923                 1.6476
 IR Inten    --      6.5931                 3.4081                16.7256

                     82                     83                     84
                      A                      A                      A
 Frequencies --   1469.4862              1482.2401              1485.4556
 Red. masses --      1.1620                 1.1862                 1.3353
 Frc consts  --      1.4783                 1.5355                 1.7360
 IR Inten    --      1.5321                10.5308                 5.0516

                     85                     86                     87
                      A                      A                      A
 Frequencies --   1488.9871              1492.2194              1495.1089
 Red. masses --      1.4293                 1.1255                 1.3522
 Frc consts  --      1.8671                 1.4765                 1.7809
 IR Inten    --     13.6156                 2.3628                 9.2883

                     88                     89                     90
                      A                      A                      A
 Frequencies --   1501.2225              1506.6370              1510.0917
 Red. masses --      1.9226                 1.1369                 1.0996
 Frc consts  --      2.5528                 1.5205                 1.4774
 IR Inten    --     22.2697                10.4637                 5.1644

                     91                     92                     93
                      A                      A                      A
 Frequencies --   1528.6927              1535.9587              1542.8762
 Red. masses --      1.4424                 1.3928                 1.1674
 Frc consts  --      1.9860                 1.9360                 1.6373
 IR Inten    --    128.3549                33.3011                25.5935

                     94                     95                     96
                      A                      A                      A
 Frequencies --   1546.3598              1630.7826              1641.1246
 Red. masses --      2.6182                 6.0753                 6.5916
 Frc consts  --      3.6888                 9.5195                10.4599
 IR Inten    --     16.7784                14.3752                 6.5207

                     97                     98                     99
                      A                      A                      A
 Frequencies --   1656.2017              1663.5541              2946.2698
 Red. masses --      5.8614                 5.7459                 1.0609
 Frc consts  --      9.4728                 9.3688                 5.4259
 IR Inten    --     26.5833                 9.7091                74.9644

                    100                    101                    102
                      A                      A                      A
 Frequencies --   2985.4929              3017.4906              3021.0459
 Red. masses --      1.0736                 1.0598                 1.0620
 Frc consts  --      5.6378                 5.6857                 5.7105
 IR Inten    --     54.6555                33.2434                28.5941

                    103                    104                    105
                      A                      A                      A
 Frequencies --   3047.3874              3048.7080              3061.7348
 Red. masses --      1.0695                 1.0766                 1.0828
 Frc consts  --      5.8518                 5.8959                 5.9802
 IR Inten    --     14.5798                 8.3806                51.5966

                    106                    107                    108
                      A                      A                      A
 Frequencies --   3065.9906              3081.7432              3096.4054
 Red. masses --      1.0961                 1.0737                 1.1015
 Frc consts  --      6.0709                 6.0078                 6.2222
 IR Inten    --     70.9093                29.6929                30.3814

                    109                    110                    111
                      A                      A                      A
 Frequencies --   3100.0506              3125.4253              3130.6380
 Red. masses --      1.1042                 1.0900                 1.1007
 Frc consts  --      6.2524                 6.2731                 6.3560
 IR Inten    --     18.5064                22.4363                14.7837

                    112                    113                    114
                      A                      A                      A
 Frequencies --   3164.8148              3173.4168              3184.4081
 Red. masses --      1.0877                 1.0870                 1.0880
 Frc consts  --      6.4188                 6.4496                 6.5004
 IR Inten    --     12.5460                 7.6224                11.2232

                    115                    116                    117
                      A                      A                      A
 Frequencies --   3185.2806              3200.9243              3204.6799
 Red. masses --      1.0882                 1.0930                 1.0959
 Frc consts  --      6.5049                 6.5979                 6.6313
 IR Inten    --     10.3482                29.2451                32.7968

                    118                    119                    120
                      A                      A                      A
 Frequencies --   3210.3649              3228.9796              3556.0519
 Red. masses --      1.0966                 1.0913                 1.0754
 Frc consts  --      6.6593                 6.7038                 8.0119
 IR Inten    --     16.4229                10.8774                 0.2103

 - Thermochemistry -
 -------------------
 Temperature   298.150 Kelvin.  Pressure   1.00000 Atm.
 Atom     1 has atomic number  6 and mass  12.00000

 Molecular mass:   266.17830 amu.
 Principal axes and moments of inertia in atomic units:
                           1         2         3
     Eigenvalues --  4317.264115626.997857459.54399
           X            0.99988  -0.01417   0.00665
           Y            0.01410   0.99984   0.01056
           Z           -0.00680  -0.01047   0.99992
 This molecule is an asymmetric top.
 Rotational symmetry number  1.
 Warning -- assumption of classical behavior for rotation
           may cause significant error
 Rotational temperatures (Kelvin)      0.02006     0.01539     0.01161
 Rotational constants (GHZ):           0.41803     0.32073     0.24194
 Zero-point vibrational energy     962301.2 (Joules/Mol)
                                  229.99550 (Kcal/Mol)
 Warning -- explicit consideration of  28 degrees of freedom as
           vibrations may cause significant error
 Vibrational temperatures:     45.91    66.03    86.51   107.36   123.29
          (Kelvin)            142.16   200.31   219.58   252.25   264.97
                              338.35   388.47   429.87   459.18   480.67
                              505.52   546.83   565.62   613.78   647.78
                              672.81   694.93   720.58   763.90   800.03
                              830.91   855.89   872.48   919.07   998.48
                             1019.47  1047.26  1090.82  1100.52  1120.77
                             1132.72  1147.09  1187.90  1223.29  1247.42
                             1266.19  1287.09  1334.08  1351.89  1359.09
                             1360.84  1401.58  1408.99  1421.60  1463.34
                             1505.29  1517.31  1547.14  1556.32  1580.14
                             1602.86  1639.76  1652.46  1669.29  1678.76
                             1694.55  1711.61  1718.44  1724.07  1738.98
                             1772.84  1784.87  1803.92  1812.83  1861.62
                             1870.88  1911.67  1925.42  1931.07  1956.68
                             1963.35  1979.70  2001.61  2009.63  2018.17
                             2045.32  2114.26  2132.61  2137.24  2142.32
                             2146.97  2151.13  2159.92  2167.71  2172.69
                             2199.45  2209.90  2219.85  2224.87  2346.33
                             2361.21  2382.90  2393.48  4239.03  4295.46
                             4341.50  4346.61  4384.51  4386.41  4405.15
                             4411.28  4433.94  4455.04  4460.28  4496.79
                             4504.29  4553.46  4565.84  4581.65  4582.91
                             4605.42  4610.82  4619.00  4645.78  5116.37

 Zero-point correction=                           0.366521 (Hartree/Particle)
 Thermal correction to Energy=                    0.384072
 Thermal correction to Enthalpy=                  0.385016
 Thermal correction to Gibbs Free Energy=         0.320838
 Sum of electronic and zero-point Energies=           -808.413131
 Sum of electronic and thermal Energies=              -808.395581
 Sum of electronic and thermal Enthalpies=            -808.394636
 Sum of electronic and thermal Free Energies=         -808.458814

                     E (Thermal)             CV                S
                      KCal/Mol        Cal/Mol-Kelvin    Cal/Mol-Kelvin
 Total                  241.009             70.446            135.073
 Electronic               0.000              0.000              0.000
 Translational            0.889              2.981             42.636
 Rotational               0.889              2.981             33.560
 Vibrational            239.231             64.484             58.877
 Vibration     1          0.594              1.983              5.707
 Vibration     2          0.595              1.979              4.987
 Vibration     3          0.597              1.973              4.453
 Vibration     4          0.599              1.966              4.028
 Vibration     5          0.601              1.959              3.756
 Vibration     6          0.604              1.950              3.478
 Vibration     7          0.615              1.914              2.815
 Vibration     8          0.619              1.900              2.639
 Vibration     9          0.627              1.873              2.378
 Vibration    10          0.631              1.861              2.286
 Vibration    11          0.655              1.787              1.839
 Vibration    12          0.674              1.728              1.596
 Vibration    13          0.692              1.676              1.424
 Vibration    14          0.705              1.637              1.314
 Vibration    15          0.716              1.607              1.240
 Vibration    16          0.728              1.572              1.160
 Vibration    17          0.750              1.513              1.039
 Vibration    18          0.760              1.485              0.988
 Vibration    19          0.788              1.412              0.870
 Vibration    20          0.809              1.360              0.795
 Vibration    21          0.825              1.322              0.744
 Vibration    22          0.839              1.288              0.702
 Vibration    23          0.856              1.248              0.656
 Vibration    24          0.886              1.182              0.585
 Vibration    25          0.912              1.126              0.532
 Vibration    26          0.934              1.080              0.490
 Vibration    27          0.953              1.043              0.459
 Vibration    28          0.965              1.018              0.439

 Optimization completed.
    -- Stationary point found.
 Normal termination of Gaussian 16 at Fri Sep 23 16:26:10 2022.

 ----------------------------------------------------------------------
 # M062X/def2tzvp int=(grid=ultrafine) pop=nbo7 polar prop=efg volume g
 uess=read geom=check
 ----------------------------------------------------------------------

 ---------
 SecN5.xyz
 ---------
 Structure from the checkpoint file:  "SecN5_clust-8.chk"
 Charge =  0 Multiplicity = 1

 SCF Done:  E(RM062X) =  -808.595988039     A.U. after   11 cycles

  Exact polarizability:     255.635      17.832     198.549      -3.452      18.583     198.436
 Approx polarizability:     298.492      21.306     249.921      -5.465      33.764     281.772

 Summary of Natural Population Analysis:

                                     Natural Population
             Natural    ---------------------------------------------
  Atom No    Charge        Core      Valence    Rydberg      Total
 --------------------------------------------------------------------
    C  1   -0.41061      1.99999     4.39775    0.01287     6.41061
    N  2   -0.64637      1.99999     5.61965    0.02672     7.64637
    C  3   -0.22166      1.99999     4.20759    0.01408     6.22166
    C  4   -0.40956      1.99999     4.39768    0.01188     6.40956
    C  5   -0.21550      1.99999     4.20142    0.01409     6.21550
    N  6   -0.46561      1.99999     5.43909    0.02653     7.46561
    C  7    0.16719      1.99999     3.81431    0.01851     5.83281
    C  8   -0.03363      1.99999     4.01563    0.01801     6.03363
    C  9   -0.41758      1.99999     4.40556    0.01204     6.41758
    C 10   -0.40332      1.99999     4.39227    0.01106     6.40332
    C 11   -0.04966      1.99999     4.03337    0.01629     6.04966
    C 12    0.17020      1.99999     3.81154    0.01827     5.82980
    C 13   -0.25136      1.99999     4.23480    0.01657     6.25136
    C 14   -0.20481      1.99999     4.18821    0.01661     6.20481
    C 15   -0.23241      1.99999     4.21567    0.01675     6.23241
    C 16   -0.18947      1.99999     4.17354    0.01594     6.18947
    C 17   -0.20383      1.99999     4.18745    0.01639     6.20383
    C 18   -0.22056      1.99999     4.20414    0.01643     6.22056
    C 19   -0.20798      1.99999     4.19164    0.01635     6.20798
    C 20   -0.23479      1.99999     4.21886    0.01594     6.23479
    H 21    0.16095      0.00000     0.83653    0.00252     0.83905
    H 22    0.20068      0.00000     0.79817    0.00116     0.79932
    H 23    0.19826      0.00000     0.80010    0.00164     0.80174
    H 24    0.35774      0.00000     0.64027    0.00199     0.64226
    H 25    0.18119      0.00000     0.81570    0.00311     0.81881
    H 26    0.19312      0.00000     0.80533    0.00155     0.80688
    H 27    0.21042      0.00000     0.78808    0.00150     0.78958
    H 28    0.20937      0.00000     0.78905    0.00158     0.79063
    H 29    0.17738      0.00000     0.81998    0.00265     0.82262
    H 30    0.22710      0.00000     0.77069    0.00221     0.77290
    H 31    0.21365      0.00000     0.78485    0.00150     0.78635
    H 32    0.21955      0.00000     0.77800    0.00245     0.78045
    H 33    0.21389      0.00000     0.78419    0.00192     0.78611
    H 34    0.21506      0.00000     0.78334    0.00160     0.78494
    H 35    0.21275      0.00000     0.78553    0.00173     0.78725
    H 36    0.21279      0.00000     0.78602    0.00119     0.78721
    H 37    0.21410      0.00000     0.78475    0.00115     0.78590
    H 38    0.20672      0.00000     0.79194    0.00134     0.79328
    H 39    0.21033      0.00000     0.78828    0.00139     0.78967
    H 40    0.21452      0.00000     0.78434    0.00114     0.78548
    H 41    0.21457      0.00000     0.78425    0.00118     0.78543
    H 42    0.21722      0.00000     0.78127    0.00151     0.78278
 ====================================================================
 * Total *  0.00000     39.99984   103.63083    0.36933   144.00000

 1\1\GINC-NOTCH161\SP\RM062X\def2TZVP\C18H22N2\U6032257\23-Sep-2022\0\\
 # M062X/def2tzvp int=(grid=ultrafine) pop=nbo7 polar prop=efg volume g
 uess=read geom=check\\SecN5.xyz\\0,1\C,0,1.6903310598,-3.7936592222,2.
 0142216128\N,0,0.6242639099,-3.2285479773,2.8343188959\C,0,-0.59741927
 5,-2.8688536812,2.1001224241\C,0,-0.8313220662,-1.3543471025,2.0727845
 616\C,0,0.3255391899,-0.5810208185,1.4373291181\N,0,0.5288512936,-0.91
 77568488,0.0234147862\C,0,1.881550435,-0.9465353607,-0.4233952852\C,0,
 2.2974931992,-1.9851452455,-1.2732423345\C,0,1.2819069606,-2.993174486

 Normal termination of Gaussian 16 at Fri Sep 23 16:40:02 2022.
 Gaussian 16:  ES64L-G16RevC.01  3-Jul-2019

 --------------------------------------------------------------------
 # M062X/def2tzvp int=(grid=ultrafine) nmr=giao guess=read geom=check
 --------------------------------------------------------------------

 ---------
 SecN5.xyz
 ---------
 Structure from the checkpoint file:  "SecN5_clust-8.chk"
 Charge =  0 Multiplicity = 1

                         Standard orientation:
 ---------------------------------------------------------------------
 Center     Atomic      Atomic             Coordinates (Angstroms)
 Number     Number       Type             X           Y           Z
 ---------------------------------------------------------------------
      1          6           0       -2.559427    2.165402   -1.205179
      2          7           0       -1.769532    3.215796   -0.571816
      3          6           0       -0.313690    3.060859   -0.703916
      4          6           0        0.361941    2.772513    0.641286
      5          6           0       -0.170175    1.509119    1.320147
      6          7           0        0.088965    0.291290    0.543217
      7          6           0       -0.930197   -0.703680    0.583292
      8          6           0       -1.285395   -1.364854   -0.604412
      9          6           0       -0.533504   -1.036927   -1.860887
     10          6           0        0.907941   -1.552575   -1.802902
     11          6           0        1.825560   -0.948006   -0.751541
     12          6           0        1.437724   -0.107370    0.319683
     13          6           0        2.437620    0.367290    1.191097
     14          6           0        3.778144    0.041519    1.025392
     15          6           0        4.163136   -0.791464   -0.021810
     16          6           0        3.183223   -1.270482   -0.883216
     17          6           0       -2.307999   -2.315457   -0.572246
     18          6           0       -2.994431   -2.597575    0.608496
     19          6           0       -2.649531   -1.925402    1.780375
     20          6           0       -1.618800   -0.987243    1.768994
     21          1           0       -2.340200    2.016727   -2.278245
     22          1           0       -3.623376    2.402091   -1.106544
     23          1           0       -2.389136    1.210337   -0.701869
     24          1           0       -2.052053    4.114248   -0.946231
     25          1           0       -0.070522    2.255218   -1.410249
     26          1           0        0.122501    3.977410   -1.119525
     27          1           0        1.445267    2.708604    0.494696
     28          1           0        0.174332    3.613727    1.319028
     29          1           0        0.209966    1.442280    2.350994
     30          1           0       -1.254194    1.609283    1.394965
     31          1           0       -1.035466   -1.486774   -2.723431
     32          1           0       -0.527900    0.047686   -2.012983
     33          1           0        0.872100   -2.639949   -1.652380
     34          1           0        1.379612   -1.401354   -2.781667
     35          1           0        2.157993    0.997878    2.024805
     36          1           0        4.513496    0.432685    1.722094
     37          1           0        5.204425   -1.058777   -0.169830
     38          1           0        3.472048   -1.915347   -1.709983
     39          1           0       -2.579523   -2.825173   -1.492985
     40          1           0       -3.794593   -3.331038    0.611740
     41          1           0       -3.173795   -2.136567    2.707436
     42          1           0       -1.339844   -0.476781    2.684453
 ---------------------------------------------------------------------

 SCF Done:  E(RM062X) =  -808.595988039     A.U. after    1 cycles

      1  C    Isotropic =   145.1931   Anisotropy =    56.9486

      2  N    Isotropic =   231.8234   Anisotropy =    70.7083

      3  C    Isotropic =   137.3332   Anisotropy =    54.0206

      4  C    Isotropic =   152.4888   Anisotropy =    22.3088

      5  C    Isotropic =   135.7415   Anisotropy =    49.6605

      6  N    Isotropic =   171.3651   Anisotropy =    74.8009

      7  C    Isotropic =     7.2085   Anisotropy =   178.3115

      8  C    Isotropic =    21.5372   Anisotropy =   218.8870

      9  C    Isotropic =   150.2574   Anisotropy =    23.1739

     10  C    Isotropic =   148.0308   Anisotropy =    24.7985

     11  C    Isotropic =    32.6090   Anisotropy =   201.5367

     12  C    Isotropic =    18.2025   Anisotropy =   179.7766

     13  C    Isotropic =    46.0356   Anisotropy =   204.8347

     14  C    Isotropic =    38.3435   Anisotropy =   206.0180

     15  C    Isotropic =    44.8226   Anisotropy =   200.6110

     16  C    Isotropic =    30.6959   Anisotropy =   193.4930

     17  C    Isotropic =    36.4297   Anisotropy =   186.1212

     18  C    Isotropic =    40.0415   Anisotropy =   204.5751

     19  C    Isotropic =    36.7364   Anisotropy =   209.9493

     20  C    Isotropic =    41.6138   Anisotropy =   200.0726

     21  H    Isotropic =    29.6610   Anisotropy =     7.8178

     22  H    Isotropic =    29.8547   Anisotropy =     9.4215

     23  H    Isotropic =    30.3088   Anisotropy =    11.1815

     24  H    Isotropic =    31.8119   Anisotropy =    17.2400

     25  H    Isotropic =    29.3155   Anisotropy =     4.0582

     26  H    Isotropic =    29.1865   Anisotropy =     8.3837

     27  H    Isotropic =    30.0109   Anisotropy =     7.6265

     28  H    Isotropic =    30.6961   Anisotropy =    10.2994

     29  H    Isotropic =    27.5951   Anisotropy =     8.6532

     30  H    Isotropic =    28.1423   Anisotropy =     3.4343

     31  H    Isotropic =    29.2209   Anisotropy =     8.9402

     32  H    Isotropic =    27.8246   Anisotropy =     6.4670

     33  H    Isotropic =    28.8927   Anisotropy =     7.3386

     34  H    Isotropic =    28.5549   Anisotropy =     9.1019

     35  H    Isotropic =    24.0467   Anisotropy =    12.0512

     36  H    Isotropic =    24.0445   Anisotropy =     6.0685

     37  H    Isotropic =    24.3786   Anisotropy =     4.7544

     38  H    Isotropic =    24.0178   Anisotropy =     9.6132

     39  H    Isotropic =    23.9880   Anisotropy =     8.1352

     40  H    Isotropic =    24.0813   Anisotropy =     5.1388

     41  H    Isotropic =    23.8934   Anisotropy =     5.8881

     42  H    Isotropic =    23.9521   Anisotropy =    11.2514

 The electronic state is 1-A.
 Alpha  occ. eigenvalues --  -14.75900 -14.72698 -10.58146 -10.57541 -10.56206
 Alpha  occ. eigenvalues --  -10.55399 -10.54654 -10.54637 -10.54393 -10.54061
 Alpha  occ. eigenvalues --  -10.54005 -10.53956 -10.53882 -10.53734 -10.53712
 Alpha  occ. eigenvalues --  -10.53580 -10.53462 -10.53368 -10.53110 -10.52596
 Alpha  occ. eigenvalues --   -1.05862  -1.00201  -0.95841  -0.94690  -0.89859
 Alpha  occ. eigenvalues --   -0.86681  -0.85066  -0.84564  -0.81771  -0.79876
 Alpha  occ. eigenvalues --   -0.76957  -0.73644  -0.72557  -0.68841  -0.68195
 Alpha  occ. eigenvalues --   -0.66532  -0.65599  -0.63649  -0.59018  -0.57952
 Alpha  occ. eigenvalues --   -0.56921  -0.54809  -0.54704  -0.53682  -0.52517
 Alpha  occ. eigenvalues --   -0.52400  -0.51224  -0.50036  -0.49707  -0.49055
 Alpha  occ. eigenvalues --   -0.48019  -0.47515  -0.46592  -0.45351  -0.44850
 Alpha  occ. eigenvalues --   -0.44692  -0.43526  -0.42833  -0.42054  -0.41574
 Alpha  occ. eigenvalues --   -0.40683  -0.40181  -0.39548  -0.39226  -0.38593
 Alpha  occ. eigenvalues --   -0.38380  -0.34817  -0.30171  -0.29684  -0.29069
 Alpha  occ. eigenvalues --   -0.28382  -0.24848
 Alpha virt. eigenvalues --    0.01608   0.02585   0.02871   0.03512   0.06408
 Alpha virt. eigenvalues --    0.07269   0.07925   0.08905   0.09459   0.09571
 Alpha virt. eigenvalues --    0.10505   0.10717   0.12013   0.12643   0.12932

 Mulliken charges:
               1
     1  C   -0.352956
     2  N   -0.369124
     3  C   -0.251240
     4  C   -0.177224
     5  C   -0.441731
     6  N   -0.085026
     7  C    0.061257
     8  C    0.041478
     9  C   -0.408276
    10  C   -0.314154
    11  C    0.053902
    12  C    0.150176
    13  C   -0.247028
    14  C   -0.149311
    15  C   -0.167594
    16  C   -0.177910
    17  C   -0.114114
    18  C   -0.163129
    19  C   -0.137480
    20  C   -0.203941
    21  H    0.142674
    22  H    0.142525
    23  H    0.152485
    24  H    0.207886
    25  H    0.158225
    26  H    0.143212
    27  H    0.167235
    28  H    0.134252
    29  H    0.176181
    30  H    0.224412
    31  H    0.152195
    32  H    0.169017
    33  H    0.170403
    34  H    0.154646
    35  H    0.161783
    36  H    0.139593
    37  H    0.138561
    38  H    0.138671
    39  H    0.135104
    40  H    0.140368
    41  H    0.141532
    42  H    0.162463
 Sum of Mulliken charges =  -0.00000

 Dipole moment (field-independent basis, Debye):
    X=             -0.3753    Y=              0.7255    Z=             -0.9255  Tot=              1.2344
 Quadrupole moment (field-independent basis, Debye-Ang):
   XX=           -118.6168   YY=           -117.0092   ZZ=           -114.3364
   XY=              2.1659   XZ=              1.2333   YZ=              2.0408

 1\1\GINC-NOTCH161\SP\RM062X\def2TZVP\C18H22N2\U6032257\23-Sep-2022\0\\
 # M062X/def2tzvp int=(grid=ultrafine) nmr=giao guess=read geom=check\\
 SecN5.xyz\\0,1\C,0,1.6903310598,-3.7936592222,2.0142216128\N,0,0.62426
 39099,-3.2285479773,2.8343188959\C,0,-0.597419275,-2.8688536812,2.1001
 224241\C,0,-0.8313220662,-1.3543471025,2.0727845616\C,0,0.3255391899,-
 0.5810208185,1.4373291181\N,0,0.5288512936,-0.9177568488,0.0234147862\
 C,0,1.881550435,-0.9465353607,-0.4233952852\C,0,2.2974931992,-1.985145
 2455,-1.2732423345\C,0,1.2819069606,-2.9931744863,-1.724982446\C,0,0.2

 Normal termination of Gaussian 16 at Fri Sep 23 16:45:45 2022.
