 Gaussian 16, Revision C.01,

 ----------------------------------------------------------------------
 # B3LYP/6-31G(d,p) empiricaldispersion=GD3BJ int=(grid=ultrafine) opt
 freq=noraman
 ----------------------------------------------------------------------

 ---------
 SecN2.xyz
 ---------
 Symbolic Z-matrix:
 Charge =  0 Multiplicity = 1

 SCF Done:  E(RB3LYP) =  -251.942416831     A.U. after   12 cycles
 SCF Done:  E(RB3LYP) =  -251.945072024     A.U. after   11 cycles
 SCF Done:  E(RB3LYP) =  -251.945296976     A.U. after    9 cycles
 SCF Done:  E(RB3LYP) =  -251.945311732     A.U. after    8 cycles
 SCF Done:  E(RB3LYP) =  -251.945312910     A.U. after    7 cycles
 Optimization completed.
    -- Stationary point found.
 Normal termination of Gaussian 16 at Fri Sep 23 15:03:05 2022.

 ----------------------------------------------------------------------
 #N Geom=AllCheck Guess=TCheck SCRF=Check GenChk RB3LYP/6-31G(d,p) Freq
 ----------------------------------------------------------------------

 Structure from the checkpoint file:  "SecN2_conf-1.chk"
 ---------
 SecN2.xyz
 ---------
 Charge =  0 Multiplicity = 1

 SCF Done:  E(RB3LYP) =  -251.945312910     A.U. after    1 cycles

                      1                      2                      3
                      A                      A                      A
 Frequencies --    247.6803               251.6493               404.9836
 Red. masses --      1.9316                 1.7798                 1.6867
 Frc consts  --      0.0698                 0.0664                 0.1630
 IR Inten    --      1.2778                 0.4447                 1.3907

                      4                      5                      6
                      A                      A                      A
 Frequencies --    436.2190               452.5443               548.3840
 Red. masses --      3.1397                 2.9612                 1.3965
 Frc consts  --      0.3520                 0.3573                 0.2474
 IR Inten    --      7.5286                 0.8669                20.0169

                      7                      8                      9
                      A                      A                      A
 Frequencies --    774.9927               826.2006               828.3394
 Red. masses --      1.5600                 1.4638                 3.3373
 Frc consts  --      0.5520                 0.5887                 1.3492
 IR Inten    --     83.9946                 0.5145                 0.3965

                     10                     11                     12
                      A                      A                      A
 Frequencies --    878.7242               885.3874               916.4355
 Red. masses --      1.6282                 2.3472                 1.6920
 Frc consts  --      0.7407                 1.0841                 0.8373
 IR Inten    --     11.9797                 0.0613                 2.3196

                     13                     14                     15
                      A                      A                      A
 Frequencies --    987.1918              1055.4423              1067.8457
 Red. masses --      1.2776                 1.9017                 1.6661
 Frc consts  --      0.7336                 1.2481                 1.1194
 IR Inten    --      0.8070                 1.4514                 1.8491

                     16                     17                     18
                      A                      A                      A
 Frequencies --   1070.9172              1142.0711              1175.2598
 Red. masses --      2.0296                 2.6986                 1.1773
 Frc consts  --      1.3714                 2.0739                 0.9581
 IR Inten    --      9.9802                17.1014                 3.2477

                     19                     20                     21
                      A                      A                      A
 Frequencies --   1175.4279              1189.9808              1296.3340
 Red. masses --      2.2083                 1.3254                 1.2519
 Frc consts  --      1.7976                 1.1058                 1.2395
 IR Inten    --      5.2254                 5.8773                 3.5613

                     22                     23                     24
                      A                      A                      A
 Frequencies --   1300.9276              1321.4806              1355.1892
 Red. masses --      1.1937                 1.2297                 1.2987
 Frc consts  --      1.1903                 1.2652                 1.4052
 IR Inten    --      2.2636                 0.4976                15.9937

                     25                     26                     27
                      A                      A                      A
 Frequencies --   1371.5548              1390.6853              1391.3536
 Red. masses --      1.3812                 1.4354                 1.4796
 Frc consts  --      1.5308                 1.6356                 1.6876
 IR Inten    --     21.0618                 0.4905                 0.4259

                     28                     29                     30
                      A                      A                      A
 Frequencies --   1436.8636              1483.9720              1493.0379
 Red. masses --      1.4742                 1.1742                 1.1772
 Frc consts  --      1.7932                 1.5235                 1.5461
 IR Inten    --      5.7346                 2.6822                 0.0736

                     31                     32                     33
                      A                      A                      A
 Frequencies --   1497.1322              1507.8884              1512.1113
 Red. masses --      1.0865                 1.1101                 1.1306
 Frc consts  --      1.4349                 1.4872                 1.5232
 IR Inten    --      5.9161                 5.0784                 0.6064

                     34                     35                     36
                      A                      A                      A
 Frequencies --   1525.3311              2904.6439              2911.2821
 Red. masses --      1.1022                 1.0740                 1.0722
 Frc consts  --      1.5110                 5.3387                 5.3542
 IR Inten    --      1.9121                28.8331               146.8890

                     37                     38                     39
                      A                      A                      A
 Frequencies --   3021.4670              3041.5497              3041.8158
 Red. masses --      1.0662                 1.0600                 1.0628
 Frc consts  --      5.7346                 5.7777                 5.7938
 IR Inten    --     29.7207                25.9836                14.9504

                     40                     41                     42
                      A                      A                      A
 Frequencies --   3072.8843              3072.9041              3076.7813
 Red. masses --      1.0872                 1.0920                 1.0913
 Frc consts  --      6.0484                 6.0754                 6.0865
 IR Inten    --     87.3385                58.0874                16.9366

                     43                     44                     45
                      A                      A                      A
 Frequencies --   3086.9320              3092.0687              3525.7564
 Red. masses --      1.1054                 1.1057                 1.0748
 Frc consts  --      6.2060                 6.2283                 7.8719
 IR Inten    --     19.9270                79.3758                 1.4530

 - Thermochemistry -
 -------------------
 Temperature   298.150 Kelvin.  Pressure   1.00000 Atm.
 Atom     1 has atomic number  6 and mass  12.00000

 Molecular mass:    85.08915 amu.
 Principal axes and moments of inertia in atomic units:
                           1         2         3
     Eigenvalues --   399.08806 407.18978 711.34006
           X            0.99989   0.00035  -0.01453
           Y           -0.00035   1.00000   0.00001
           Z            0.01453  -0.00000   0.99989
 This molecule is an asymmetric top.
 Rotational symmetry number  1.
 Rotational temperatures (Kelvin)      0.21703     0.21271     0.12176
 Rotational constants (GHZ):           4.52216     4.43219     2.53710
 Zero-point vibrational energy     418977.8 (Joules/Mol)
                                  100.13811 (Kcal/Mol)
 Warning -- explicit consideration of   6 degrees of freedom as
           vibrations may cause significant error
 Vibrational temperatures:    356.36   362.07   582.68   627.62   651.11
          (Kelvin)            789.00  1115.04  1188.72  1191.80  1264.29
                             1273.87  1318.55  1420.35  1518.55  1536.39
                             1540.81  1643.19  1690.94  1691.18  1712.12
                             1865.14  1871.74  1901.32  1949.82  1973.36
                             2000.89  2001.85  2067.33  2135.10  2148.15
                             2154.04  2169.52  2175.59  2194.61  4179.13
                             4188.69  4347.22  4376.11  4376.49  4421.20
                             4421.22  4426.80  4441.41  4448.80  5072.78

 Zero-point correction=                           0.159580 (Hartree/Particle)
 Thermal correction to Energy=                    0.165115
 Thermal correction to Enthalpy=                  0.166059
 Thermal correction to Gibbs Free Energy=         0.130971
 Sum of electronic and zero-point Energies=           -251.785733
 Sum of electronic and thermal Energies=              -251.780198
 Sum of electronic and thermal Enthalpies=            -251.779254
 Sum of electronic and thermal Free Energies=         -251.814342

                     E (Thermal)             CV                S
                      KCal/Mol        Cal/Mol-Kelvin    Cal/Mol-Kelvin
 Total                  103.611             21.932             73.849
 Electronic               0.000              0.000              0.000
 Translational            0.889              2.981             39.237
 Rotational               0.889              2.981             26.250
 Vibrational            101.834             15.970              8.363
 Vibration     1          0.661              1.767              1.747
 Vibration     2          0.664              1.760              1.719
 Vibration     3          0.770              1.459              0.945
 Vibration     4          0.797              1.391              0.839
 Vibration     5          0.811              1.355              0.788
 Vibration     6          0.904              1.143              0.548

 Optimization completed.
    -- Stationary point found.
 Normal termination of Gaussian 16 at Fri Sep 23 15:03:23 2022.

 ----------------------------------------------------------------------
 # M062X/def2tzvp int=(grid=ultrafine) pop=nbo7 polar prop=efg volume g
 uess=read geom=check
 ----------------------------------------------------------------------

 ---------
 SecN2.xyz
 ---------
 Structure from the checkpoint file:  "SecN2_conf-1.chk"
 Charge =  0 Multiplicity = 1

 SCF Done:  E(RM062X) =  -251.873606363     A.U. after   11 cycles

  Exact polarizability:      67.554       0.001      69.657      -0.126       0.000      59.057
 Approx polarizability:      76.230       0.001      77.609       0.612      -0.000      76.415

 Summary of Natural Population Analysis:

                                     Natural Population
             Natural    ---------------------------------------------
  Atom No    Charge        Core      Valence    Rydberg      Total
 --------------------------------------------------------------------
    C  1   -0.39782      1.99999     4.38715    0.01068     6.39782
    C  2   -0.40447      1.99999     4.39298    0.01150     6.40447
    C  3   -0.21889      1.99999     4.20544    0.01345     6.21889
    N  4   -0.62796      1.99999     5.60198    0.02599     7.62796
    C  5   -0.21889      1.99999     4.20544    0.01345     6.21889
    C  6   -0.40447      1.99999     4.39298    0.01150     6.40447
    H  7    0.20760      0.00000     0.79103    0.00137     0.79240
    H  8    0.19114      0.00000     0.80668    0.00218     0.80886
    H  9    0.20518      0.00000     0.79345    0.00137     0.79482
    H 10    0.20171      0.00000     0.79620    0.00209     0.79829
    H 11    0.19846      0.00000     0.80006    0.00148     0.80154
    H 12    0.15321      0.00000     0.84338    0.00341     0.84679
    H 13    0.35665      0.00000     0.64142    0.00193     0.64335
    H 14    0.19846      0.00000     0.80006    0.00148     0.80154
    H 15    0.15321      0.00000     0.84338    0.00341     0.84679
    H 16    0.20171      0.00000     0.79620    0.00209     0.79829
    H 17    0.20518      0.00000     0.79345    0.00137     0.79482
 ====================================================================
 * Total *  0.00000     11.99996    35.89128    0.10876    48.00000

 Normal termination of Gaussian 16 at Fri Sep 23 15:04:01 2022.
 Gaussian 16:  ES64L-G16RevC.01  3-Jul-2019

 --------------------------------------------------------------------
 # M062X/def2tzvp int=(grid=ultrafine) nmr=giao guess=read geom=check
 --------------------------------------------------------------------

 ---------
 SecN2.xyz
 ---------
 Structure from the checkpoint file:  "SecN2_conf-1.chk"
 Charge =  0 Multiplicity = 1

                         Standard orientation:
 ---------------------------------------------------------------------
 Center     Atomic      Atomic             Coordinates (Angstroms)
 Number     Number       Type             X           Y           Z
 ---------------------------------------------------------------------
      1          6           0        1.456082   -0.000549    0.234114
      2          6           0        0.714730   -1.262234   -0.228404
      3          6           0       -0.751914   -1.212484    0.207771
      4          7           0       -1.378402    0.000520   -0.319643
      5          6           0       -0.750997    1.213051    0.207770
      6          6           0        0.715683    1.261696   -0.228403
      7          1           0        2.487614   -0.000940   -0.135718
      8          1           0        1.514239   -0.000570    1.331785
      9          1           0        1.192998   -2.162225    0.174593
     10          1           0        0.750608   -1.329471   -1.322354
     11          1           0       -1.294944   -2.081947   -0.178129
     12          1           0       -0.794108   -1.263815    1.314581
     13          1           0       -2.368814    0.000894   -0.093052
     14          1           0       -1.293375    2.082922   -0.178126
     15          1           0       -0.793149    1.264411    1.314580
     16          1           0        0.751612    1.328907   -1.322353
     17          1           0        1.194631    2.161325    0.174594
 ---------------------------------------------------------------------

 SCF Done:  E(RM062X) =  -251.873606363     A.U. after    1 cycles

      1  C    Isotropic =   158.1492   Anisotropy =     8.1329

      2  C    Isotropic =   156.8533   Anisotropy =     9.8840

      3  C    Isotropic =   134.6370   Anisotropy =    29.9045

      4  N    Isotropic =   205.8491   Anisotropy =    41.8964

      5  C    Isotropic =   134.6366   Anisotropy =    29.9041

      6  C    Isotropic =   156.8531   Anisotropy =     9.8835

      7  H    Isotropic =    30.2369   Anisotropy =     9.7203

      8  H    Isotropic =    30.7526   Anisotropy =     8.1989

      9  H    Isotropic =    30.5048   Anisotropy =     9.7014

     10  H    Isotropic =    30.4596   Anisotropy =     8.3697

     11  H    Isotropic =    28.9658   Anisotropy =     8.4328

     12  H    Isotropic =    29.4146   Anisotropy =     8.1593

     13  H    Isotropic =    31.3113   Anisotropy =    14.6661

     14  H    Isotropic =    28.9658   Anisotropy =     8.4328

     15  H    Isotropic =    29.4146   Anisotropy =     8.1593

     16  H    Isotropic =    30.4597   Anisotropy =     8.3698

     17  H    Isotropic =    30.5048   Anisotropy =     9.7014

 The electronic state is 1-A.
 Alpha  occ. eigenvalues --  -14.72545 -10.55210 -10.55209 -10.52624 -10.52420
 Alpha  occ. eigenvalues --  -10.52416  -1.01153  -0.87763  -0.84126  -0.71683
 Alpha  occ. eigenvalues --   -0.69876  -0.62745  -0.57997  -0.51880  -0.51511
 Alpha  occ. eigenvalues --   -0.48842  -0.46830  -0.45747  -0.44138  -0.40239
 Alpha  occ. eigenvalues --   -0.38361  -0.36537  -0.36368  -0.28732
 Alpha virt. eigenvalues --    0.06475   0.09025   0.09995   0.10129   0.12374
 Alpha virt. eigenvalues --    0.13524   0.14054   0.15003   0.15549   0.16453
 Alpha virt. eigenvalues --    0.17093   0.18842   0.20152   0.23028   0.23284

 Mulliken charges:
               1
     1  C   -0.263877
     2  C   -0.256234
     3  C   -0.210266
     4  N   -0.362251
     5  C   -0.210266
     6  C   -0.256235
     7  H    0.136982
     8  H    0.137420
     9  H    0.133122
    10  H    0.138388
    11  H    0.133412
    12  H    0.134138
    13  H    0.206605
    14  H    0.133412
    15  H    0.134138
    16  H    0.138388
    17  H    0.133122
 Sum of Mulliken charges =  -0.00000

 Dipole moment (field-independent basis, Debye):
    X=             -0.1933    Y=              0.0001    Z=              0.8863  Tot=              0.9071
 Quadrupole moment (field-independent basis, Debye-Ang):
   XX=            -37.3664   YY=            -38.2333   ZZ=            -41.1989
   XY=             -0.0003   XZ=             -1.5208   YZ=              0.0006

 Normal termination of Gaussian 16 at Fri Sep 23 15:04:17 2022.
