 Gaussian 16, Revision C.01,

 ----------------------------------------------------------------------
 # B3LYP/6-31G(d,p) empiricaldispersion=GD3BJ int=(grid=ultrafine) opt
 freq=noraman
 ----------------------------------------------------------------------

 ---------
 SecN5.xyz
 ---------
 Symbolic Z-matrix:
 Charge =  0 Multiplicity = 1

 SCF Done:  E(RB3LYP) =  -808.771347878     A.U. after   14 cycles
 SCF Done:  E(RB3LYP) =  -808.777738806     A.U. after   12 cycles
 SCF Done:  E(RB3LYP) =  -808.779058206     A.U. after   12 cycles
 SCF Done:  E(RB3LYP) =  -808.779880662     A.U. after   12 cycles
 SCF Done:  E(RB3LYP) =  -808.780315083     A.U. after   12 cycles
 SCF Done:  E(RB3LYP) =  -808.780568430     A.U. after   11 cycles
 SCF Done:  E(RB3LYP) =  -808.780811342     A.U. after   11 cycles
 SCF Done:  E(RB3LYP) =  -808.780969238     A.U. after   11 cycles
 SCF Done:  E(RB3LYP) =  -808.781052218     A.U. after   11 cycles
 SCF Done:  E(RB3LYP) =  -808.781136660     A.U. after   10 cycles
 SCF Done:  E(RB3LYP) =  -808.781493542     A.U. after   10 cycles
 SCF Done:  E(RB3LYP) =  -808.781507370     A.U. after   11 cycles
 SCF Done:  E(RB3LYP) =  -808.781510738     A.U. after    9 cycles
 SCF Done:  E(RB3LYP) =  -808.781512659     A.U. after    9 cycles
 SCF Done:  E(RB3LYP) =  -808.781512804     A.U. after    9 cycles
 SCF Done:  E(RB3LYP) =  -808.781512870     A.U. after    9 cycles
 SCF Done:  E(RB3LYP) =  -808.781512885     A.U. after    7 cycles
 Optimization completed.
    -- Stationary point found.
 Normal termination of Gaussian 16 at Fri Sep 23 16:20:21 2022.

 ----------------------------------------------------------------------
 #N Geom=AllCheck Guess=TCheck SCRF=Check GenChk RB3LYP/6-31G(d,p) Freq
 ----------------------------------------------------------------------

 Structure from the checkpoint file:  "SecN5_clust-4.chk"
 ---------
 SecN5.xyz
 ---------
 Charge =  0 Multiplicity = 1

 SCF Done:  E(RB3LYP) =  -808.781512885     A.U. after    1 cycles

                      1                      2                      3
                      A                      A                      A
 Frequencies --     20.5549                35.9502                56.4469
 Red. masses --      3.9872                 4.4810                 3.8745
 Frc consts  --      0.0010                 0.0034                 0.0073
 IR Inten    --      0.0664                 0.5300                 0.2508

                      4                      5                      6
                      A                      A                      A
 Frequencies --     85.4058                92.4875               106.7791
 Red. masses --      3.2543                 3.4642                 2.2191
 Frc consts  --      0.0140                 0.0175                 0.0149
 IR Inten    --      1.0760                 0.2889                 1.5609

                      7                      8                      9
                      A                      A                      A
 Frequencies --    138.7911               148.8795               176.0780
 Red. masses --      3.5935                 2.9969                 3.3260
 Frc consts  --      0.0408                 0.0391                 0.0608
 IR Inten    --      0.1597                 0.8627                 0.1226

                     10                     11                     12
                      A                      A                      A
 Frequencies --    202.6946               260.0160               270.3607
 Red. masses --      2.1245                 2.1393                 1.7365
 Frc consts  --      0.0514                 0.0852                 0.0748
 IR Inten    --      2.5473                 2.1818                 1.8932

                     13                     14                     15
                      A                      A                      A
 Frequencies --    287.1827               302.5252               318.4550
 Red. masses --      2.5362                 2.7233                 3.6770
 Frc consts  --      0.1232                 0.1468                 0.2197
 IR Inten    --      0.7702                 0.8450                 0.5451

                     16                     17                     18
                      A                      A                      A
 Frequencies --    327.2841               364.0532               379.8896
 Red. masses --      2.9122                 3.2308                 3.5135
 Frc consts  --      0.1838                 0.2523                 0.2987
 IR Inten    --      1.6878                 3.2450                 0.7313

                     19                     20                     21
                      A                      A                      A
 Frequencies --    430.3002               450.6563               464.1818
 Red. masses --      3.6350                 2.8858                 3.7875
 Frc consts  --      0.3965                 0.3453                 0.4808
 IR Inten    --      5.6770                 4.7919                 1.0165

                     22                     23                     24
                      A                      A                      A
 Frequencies --    482.1811               503.7804               541.9130
 Red. masses --      2.9506                 3.3473                 3.3219
 Frc consts  --      0.4042                 0.5005                 0.5748
 IR Inten    --      1.2220                 2.7863                 1.1542

                     25                     26                     27
                      A                      A                      A
 Frequencies --    564.4875               577.7561               598.8200
 Red. masses --      3.6103                 4.6435                 3.5955
 Frc consts  --      0.6778                 0.9132                 0.7596
 IR Inten    --      0.3254                 0.3817                 3.0702

                     28                     29                     30
                      A                      A                      A
 Frequencies --    608.1802               645.1868               697.8198
 Red. masses --      2.9765                 5.1564                 4.5525
 Frc consts  --      0.6487                 1.2646                 1.3061
 IR Inten    --      7.6248                 3.8102                 3.6318

                     31                     32                     33
                      A                      A                      A
 Frequencies --    728.8200               756.2908               758.5882
 Red. masses --      3.1935                 1.4855                 1.9899
 Frc consts  --      0.9995                 0.5006                 0.6747
 IR Inten    --      2.0111                36.4007                33.1499

                     34                     35                     36
                      A                      A                      A
 Frequencies --    765.0281               780.5321               789.5916
 Red. masses --      1.4783                 1.8561                 2.6659
 Frc consts  --      0.5098                 0.6663                 0.9792
 IR Inten    --     24.9257                24.9896                 3.4401

                     37                     38                     39
                      A                      A                      A
 Frequencies --    800.4498               836.1484               867.9460
 Red. masses --      2.7303                 1.5758                 1.3616
 Frc consts  --      1.0307                 0.6491                 0.6043
 IR Inten    --     25.0630                16.5465                 2.9887

                     40                     41                     42
                      A                      A                      A
 Frequencies --    876.6222               884.6892               903.0254
 Red. masses --      1.6889                 2.0849                 2.6390
 Frc consts  --      0.7647                 0.9614                 1.2679
 IR Inten    --      1.7764                 0.2041                 1.1814

                     43                     44                     45
                      A                      A                      A
 Frequencies --    931.3763               943.0049               945.2061
 Red. masses --      1.9357                 1.4492                 1.5186
 Frc consts  --      0.9893                 0.7593                 0.7994
 IR Inten    --      7.0458                 3.3944                 5.9004

                     46                     47                     48
                      A                      A                      A
 Frequencies --    956.4943               974.1866               977.4686
 Red. masses --      2.0580                 1.2530                 1.2499
 Frc consts  --      1.1093                 0.7006                 0.7036
 IR Inten    --      0.4662                 0.0417                 0.0345

                     49                     50                     51
                      A                      A                      A
 Frequencies --    987.0501              1015.3666              1052.1715
 Red. masses --      2.2051                 1.7783                 2.4704
 Frc consts  --      1.2658                 1.0802                 1.6114
 IR Inten    --      0.6766                 2.6614                 0.8286

                     52                     53                     54
                      A                      A                      A
 Frequencies --   1067.5184              1073.1530              1075.1001
 Red. masses --      1.7398                 2.2063                 2.3114
 Frc consts  --      1.1681                 1.4971                 1.5740
 IR Inten    --      3.7546                 1.3813                12.4611

                     55                     56                     57
                      A                      A                      A
 Frequencies --   1092.0383              1101.4000              1138.3129
 Red. masses --      2.0251                 2.5917                 1.8882
 Frc consts  --      1.4229                 1.8523                 1.4415
 IR Inten    --      3.2256                 2.1703                21.9052

                     58                     59                     60
                      A                      A                      A
 Frequencies --   1141.3614              1160.5735              1174.6786
 Red. masses --      1.6234                 2.0244                 2.1678
 Frc consts  --      1.2460                 1.6065                 1.7624
 IR Inten    --      7.5469                10.7849                41.3656

                     61                     62                     63
                      A                      A                      A
 Frequencies --   1186.7211              1188.3385              1193.0635
 Red. masses --      1.7185                 1.1235                 1.1646
 Frc consts  --      1.4259                 0.9348                 0.9767
 IR Inten    --      4.1910                 0.8868                 0.3273

                     64                     65                     66
                      A                      A                      A
 Frequencies --   1195.1071              1208.0229              1235.3981
 Red. masses --      1.1570                 1.8888                 2.4489
 Frc consts  --      0.9737                 1.6240                 2.2021
 IR Inten    --      3.7185                 0.7304                 3.5547

                     67                     68                     69
                      A                      A                      A
 Frequencies --   1252.6185              1261.4811              1269.0853
 Red. masses --      1.3394                 1.6351                 2.0778
 Frc consts  --      1.2382                 1.5331                 1.9717
 IR Inten    --      4.9610                76.0063                44.1855

                     70                     71                     72
                      A                      A                      A
 Frequencies --   1289.6236              1296.9074              1323.9849
 Red. masses --      1.5959                 1.5268                 1.2153
 Frc consts  --      1.5638                 1.5131                 1.2552
 IR Inten    --     21.9586                11.1907                 5.9724

                     73                     74                     75
                      A                      A                      A
 Frequencies --   1328.6620              1341.9532              1358.8321
 Red. masses --      1.5714                 4.2070                 2.6150
 Frc consts  --      1.6345                 4.4637                 2.8448
 IR Inten    --      7.7763                61.0940                34.0211

                     76                     77                     78
                      A                      A                      A
 Frequencies --   1364.2444              1374.1681              1394.8787
 Red. masses --      3.0461                 1.6373                 1.3527
 Frc consts  --      3.3403                 1.8217                 1.5506
 IR Inten    --     13.6273                 4.2908                11.7672

                     79                     80                     81
                      A                      A                      A
 Frequencies --   1396.2603              1408.8069              1430.5348
 Red. masses --      1.4806                 1.5061                 1.3858
 Frc consts  --      1.7007                 1.7612                 1.6709
 IR Inten    --      7.2625                 5.1500                 9.0463

                     82                     83                     84
                      A                      A                      A
 Frequencies --   1471.2424              1484.8222              1487.9868
 Red. masses --      1.1804                 1.3335                 1.2943
 Frc consts  --      1.5054                 1.7322                 1.6884
 IR Inten    --      1.2254                16.8911                 9.2873

                     85                     86                     87
                      A                      A                      A
 Frequencies --   1489.7646              1493.8423              1500.6028
 Red. masses --      1.3068                 1.3280                 1.0991
 Frc consts  --      1.7089                 1.7461                 1.4583
 IR Inten    --      8.5711                 3.0544                 3.8794

                     88                     89                     90
                      A                      A                      A
 Frequencies --   1501.8915              1505.0858              1517.4089
 Red. masses --      1.8112                 1.2041                 1.1639
 Frc consts  --      2.4070                 1.6070                 1.5790
 IR Inten    --     13.4011                17.8662                38.7392

                     91                     92                     93
                      A                      A                      A
 Frequencies --   1527.6319              1532.1935              1535.7162
 Red. masses --      1.0897                 1.0775                 2.3166
 Frc consts  --      1.4982                 1.4903                 3.2190
 IR Inten    --     18.7652                14.7678               134.8498

                     94                     95                     96
                      A                      A                      A
 Frequencies --   1547.1151              1630.2940              1642.4950
 Red. masses --      2.6615                 6.1155                 6.6158
 Frc consts  --      3.7533                 9.5767                10.5157
 IR Inten    --     15.1974                15.0555                 7.5614

                     97                     98                     99
                      A                      A                      A
 Frequencies --   1656.1269              1663.4064              2928.1490
 Red. masses --      5.9042                 5.8030                 1.0742
 Frc consts  --      9.5411                 9.4602                 5.4265
 IR Inten    --     25.6522                 8.6617                74.4053

                    100                    101                    102
                      A                      A                      A
 Frequencies --   2946.6931              2968.5991              3020.1544
 Red. masses --      1.0604                 1.0737                 1.0613
 Frc consts  --      5.4251                 5.5748                 5.7036
 IR Inten    --    143.8364                61.9762                28.9471

                    103                    104                    105
                      A                      A                      A
 Frequencies --   3032.8790              3049.1481              3061.3745
 Red. masses --      1.0706                 1.0862                 1.0750
 Frc consts  --      5.8019                 5.9500                 5.9357
 IR Inten    --     45.2841                10.2961                49.5044

                    106                    107                    108
                      A                      A                      A
 Frequencies --   3067.8680              3076.2930              3100.4275
 Red. masses --      1.0741                 1.0847                 1.0927
 Frc consts  --      5.9561                 6.0482                 6.1886
 IR Inten    --     29.8561                36.4654                17.9860

                    109                    110                    111
                      A                      A                      A
 Frequencies --   3105.3389              3115.8597              3131.5959
 Red. masses --      1.1028                 1.1020                 1.0890
 Frc consts  --      6.2657                 6.3038                 6.2924
 IR Inten    --     15.8509                33.7859                20.1810

                    112                    113                    114
                      A                      A                      A
 Frequencies --   3164.2979              3172.0563              3183.0797
 Red. masses --      1.0877                 1.0868                 1.0880
 Frc consts  --      6.4166                 6.4426                 6.4947
 IR Inten    --     12.4941                 7.6802                 8.3590

                    115                    116                    117
                      A                      A                      A
 Frequencies --   3183.3516              3197.7062              3203.2575
 Red. masses --      1.0876                 1.0925                 1.0948
 Frc consts  --      6.4939                 6.5816                 6.6184
 IR Inten    --     11.9903                29.1523                33.1861

                    118                    119                    120
                      A                      A                      A
 Frequencies --   3207.2897              3217.4504              3502.2892
 Red. masses --      1.0974                 1.0931                 1.0739
 Frc consts  --      6.6513                 6.6669                 7.7607
 IR Inten    --     21.7606                13.2898                 0.7427

 - Thermochemistry -
 -------------------
 Temperature   298.150 Kelvin.  Pressure   1.00000 Atm.
 Atom     1 has atomic number  6 and mass  12.00000

 Molecular mass:   266.17830 amu.
 Principal axes and moments of inertia in atomic units:
                           1         2         3
     Eigenvalues --  4640.803665603.194987297.53031
           X            0.99993   0.00809   0.00852
           Y           -0.00811   0.99997   0.00185
           Z           -0.00851  -0.00192   0.99996
 This molecule is an asymmetric top.
 Rotational symmetry number  1.
 Warning -- assumption of classical behavior for rotation
           may cause significant error
 Rotational temperatures (Kelvin)      0.01866     0.01546     0.01187
 Rotational constants (GHZ):           0.38889     0.32209     0.24731
 Zero-point vibrational energy     961885.9 (Joules/Mol)
                                  229.89625 (Kcal/Mol)
 Warning -- explicit consideration of  28 degrees of freedom as
           vibrations may cause significant error
 Vibrational temperatures:     29.57    51.72    81.21   122.88   133.07
          (Kelvin)            153.63   199.69   214.20   253.34   291.63
                              374.11   388.99   413.19   435.27   458.19
                              470.89   523.79   546.58   619.11   648.39
                              667.85   693.75   724.83   779.69   812.17
                              831.26   861.57   875.04   928.28  1004.01
                             1048.61  1088.13  1091.44  1100.70  1123.01
                             1136.05  1151.67  1203.03  1248.78  1261.26
                             1272.87  1299.25  1340.04  1356.77  1359.94
                             1376.18  1401.64  1406.36  1420.14  1460.89
                             1513.84  1535.92  1544.03  1546.83  1571.20
                             1584.67  1637.78  1642.16  1669.81  1690.10
                             1707.43  1709.75  1716.55  1719.49  1738.08
                             1777.46  1802.24  1814.99  1825.93  1855.48
                             1865.96  1904.92  1911.65  1930.77  1955.06
                             1962.84  1977.12  2006.92  2008.91  2026.96
                             2058.22  2116.79  2136.33  2140.88  2143.44
                             2149.31  2159.03  2160.89  2165.48  2183.21
                             2197.92  2204.48  2209.55  2225.95  2345.63
                             2363.18  2382.80  2393.27  4212.95  4239.63
                             4271.15  4345.33  4363.64  4387.04  4404.64
                             4413.98  4426.10  4460.82  4467.89  4483.03
                             4505.67  4552.72  4563.88  4579.74  4580.13
                             4600.79  4608.77  4614.57  4629.19  5039.01

 Zero-point correction=                           0.366363 (Hartree/Particle)
 Thermal correction to Energy=                    0.383911
 Thermal correction to Enthalpy=                  0.384855
 Thermal correction to Gibbs Free Energy=         0.320231
 Sum of electronic and zero-point Energies=           -808.415150
 Sum of electronic and thermal Energies=              -808.397602
 Sum of electronic and thermal Enthalpies=            -808.396658
 Sum of electronic and thermal Free Energies=         -808.461282

                     E (Thermal)             CV                S
                      KCal/Mol        Cal/Mol-Kelvin    Cal/Mol-Kelvin
 Total                  240.908             70.279            136.012
 Electronic               0.000              0.000              0.000
 Translational            0.889              2.981             42.636
 Rotational               0.889              2.981             33.606
 Vibrational            239.130             64.317             59.770
 Vibration     1          0.593              1.986              6.580
 Vibration     2          0.594              1.982              5.471
 Vibration     3          0.596              1.975              4.578
 Vibration     4          0.601              1.959              3.763
 Vibration     5          0.602              1.955              3.607
 Vibration     6          0.606              1.944              3.327
 Vibration     7          0.614              1.915              2.820
 Vibration     8          0.618              1.904              2.686
 Vibration     9          0.628              1.872              2.370
 Vibration    10          0.639              1.836              2.108
 Vibration    11          0.668              1.746              1.662
 Vibration    12          0.674              1.728              1.594
 Vibration    13          0.684              1.698              1.491
 Vibration    14          0.694              1.669              1.403
 Vibration    15          0.705              1.638              1.318
 Vibration    16          0.711              1.621              1.273
 Vibration    17          0.738              1.546              1.105
 Vibration    18          0.750              1.513              1.040
 Vibration    19          0.791              1.404              0.858
 Vibration    20          0.809              1.359              0.794
 Vibration    21          0.822              1.330              0.754
 Vibration    22          0.838              1.290              0.704
 Vibration    23          0.859              1.242              0.649
 Vibration    24          0.897              1.157              0.561
 Vibration    25          0.920              1.108              0.515
 Vibration    26          0.934              1.079              0.490
 Vibration    27          0.957              1.034              0.452
 Vibration    28          0.967              1.014              0.436

 Optimization completed.
    -- Stationary point found.
 Normal termination of Gaussian 16 at Fri Sep 23 16:22:58 2022.

 ----------------------------------------------------------------------
 # M062X/def2tzvp int=(grid=ultrafine) pop=nbo7 polar prop=efg volume g
 uess=read geom=check
 ----------------------------------------------------------------------

 ---------
 SecN5.xyz
 ---------
 Structure from the checkpoint file:  "SecN5_clust-4.chk"
 Charge =  0 Multiplicity = 1

 SCF Done:  E(RM062X) =  -808.597250911     A.U. after   11 cycles

  Exact polarizability:     256.151      -7.159     186.276       1.557      -8.819     212.125
 Approx polarizability:     302.767      -9.528     228.116       2.909     -17.803     298.669

 Summary of Natural Population Analysis:

                                     Natural Population
             Natural    ---------------------------------------------
  Atom No    Charge        Core      Valence    Rydberg      Total
 --------------------------------------------------------------------
    C  1   -0.40687      1.99999     4.39493    0.01194     6.40687
    N  2   -0.62979      1.99999     5.60337    0.02643     7.62979
    C  3   -0.21619      1.99999     4.20185    0.01435     6.21619
    C  4   -0.41214      1.99999     4.40062    0.01153     6.41214
    C  5   -0.20681      1.99999     4.19260    0.01422     6.20681
    N  6   -0.46499      1.99999     5.43721    0.02779     7.46499
    C  7    0.17134      1.99999     3.81004    0.01863     5.82866
    C  8   -0.02807      1.99999     4.01011    0.01796     6.02807
    C  9   -0.41499      1.99999     4.40288    0.01212     6.41499
    C 10   -0.40512      1.99999     4.39409    0.01104     6.40512
    C 11   -0.04842      1.99999     4.03205    0.01637     6.04842
    C 12    0.17105      1.99999     3.81055    0.01841     5.82895
    C 13   -0.25085      1.99999     4.23418    0.01667     6.25085
    C 14   -0.20636      1.99999     4.18980    0.01657     6.20636
    C 15   -0.23226      1.99999     4.21555    0.01672     6.23226
    C 16   -0.19057      1.99999     4.17463    0.01595     6.19057
    C 17   -0.20285      1.99999     4.18660    0.01626     6.20285
    C 18   -0.22041      1.99999     4.20400    0.01642     6.22041
    C 19   -0.21030      1.99999     4.19393    0.01638     6.21030
    C 20   -0.23193      1.99999     4.21616    0.01578     6.23193
    H 21    0.16182      0.00000     0.83542    0.00276     0.83818
    H 22    0.18939      0.00000     0.80908    0.00152     0.81061
    H 23    0.20105      0.00000     0.79785    0.00110     0.79895
    H 24    0.34699      0.00000     0.65040    0.00261     0.65301
    H 25    0.16580      0.00000     0.83125    0.00294     0.83420
    H 26    0.19409      0.00000     0.80373    0.00218     0.80591
    H 27    0.20198      0.00000     0.79649    0.00152     0.79802
    H 28    0.21736      0.00000     0.78124    0.00141     0.78264
    H 29    0.22633      0.00000     0.77179    0.00188     0.77367
    H 30    0.17353      0.00000     0.82378    0.00268     0.82647
    H 31    0.22264      0.00000     0.77482    0.00254     0.77736
    H 32    0.21217      0.00000     0.78634    0.00149     0.78783
    H 33    0.21449      0.00000     0.78389    0.00162     0.78551
    H 34    0.21396      0.00000     0.78412    0.00192     0.78604
    H 35    0.21133      0.00000     0.78695    0.00172     0.78867
    H 36    0.21254      0.00000     0.78627    0.00119     0.78746
    H 37    0.21380      0.00000     0.78505    0.00115     0.78620
    H 38    0.20683      0.00000     0.79182    0.00135     0.79317
    H 39    0.20923      0.00000     0.78937    0.00140     0.79077
    H 40    0.21333      0.00000     0.78553    0.00114     0.78667
    H 41    0.21318      0.00000     0.78564    0.00119     0.78682
    H 42    0.21468      0.00000     0.78382    0.00150     0.78532
 ====================================================================
 * Total *  0.00000     39.99984   103.62980    0.37035   144.00000

 1\1\GINC-NOTCH361\SP\RM062X\def2TZVP\C18H22N2\U6032257\23-Sep-2022\0\\
 # M062X/def2tzvp int=(grid=ultrafine) pop=nbo7 polar prop=efg volume g
 uess=read geom=check\\SecN5.xyz\\0,1\C,0,1.1265476392,-0.8910998594,3.
 796539711\N,0,0.7573273036,-1.999405565,2.9267020043\C,0,-0.5493689682
 ,-1.8245590933,2.3023436357\C,0,-0.8993498658,-2.9981225747,1.38917102
 16\C,0,0.1688654684,-3.2852481693,0.3261016445\N,0,0.5342222167,-2.100
 6643592,-0.4492402901\C,0,1.8911489689,-2.0135920505,-0.8701629609\C,0
 ,2.577024799,-0.8007275185,-0.7024215647\C,0,1.8334551249,0.3555738601

 Normal termination of Gaussian 16 at Fri Sep 23 16:31:54 2022.
 Gaussian 16:  ES64L-G16RevC.01  3-Jul-2019

 --------------------------------------------------------------------
 # M062X/def2tzvp int=(grid=ultrafine) nmr=giao guess=read geom=check
 --------------------------------------------------------------------

 ---------
 SecN5.xyz
 ---------
 Structure from the checkpoint file:  "SecN5_clust-4.chk"
 Charge =  0 Multiplicity = 1

                         Standard orientation:
 ---------------------------------------------------------------------
 Center     Atomic      Atomic             Coordinates (Angstroms)
 Number     Number       Type             X           Y           Z
 ---------------------------------------------------------------------
      1          6           0       -1.228173   -3.713346   -1.509789
      2          7           0       -0.878218   -3.200018   -0.192478
      3          6           0        0.542284   -2.897565   -0.056294
      4          6           0        0.871766   -2.351318    1.331754
      5          6           0        0.024203   -1.135200    1.727148
      6          7           0        0.045298   -0.074397    0.721100
      7          6           0       -1.153087    0.678702    0.570356
      8          6           0       -1.638119    0.930416   -0.722311
      9          6           0       -0.852482    0.405202   -1.887770
     10          6           0        0.473800    1.154336   -2.068053
     11          6           0        1.497003    1.063937   -0.945662
     12          6           0        1.283268    0.501158    0.334996
     13          6           0        2.349913    0.492716    1.254006
     14          6           0        3.600511    1.007430    0.934511
     15          6           0        3.815085    1.568501   -0.322341
     16          6           0        2.763417    1.591524   -1.231800
     17          6           0       -2.819458    1.658537   -0.873568
     18          6           0       -3.534732    2.108623    0.236504
     19          6           0       -3.060647    1.833748    1.518666
     20          6           0       -1.870295    1.126949    1.684819
     21          1           0       -0.644518   -4.598110   -1.823931
     22          1           0       -1.064526   -2.930386   -2.258459
     23          1           0       -2.289646   -3.976372   -1.533674
     24          1           0       -1.139542   -3.885064    0.513490
     25          1           0        1.190084   -3.770487   -0.264509
     26          1           0        0.794308   -2.138607   -0.805046
     27          1           0        0.706811   -3.128464    2.090752
     28          1           0        1.938165   -2.110078    1.363841
     29          1           0       -1.017075   -1.451198    1.798119
     30          1           0        0.326780   -0.788093    2.728679
     31          1           0       -0.660204   -0.660826   -1.729186
     32          1           0       -1.437251    0.503643   -2.808114
     33          1           0        0.957865    0.803047   -2.987953
     34          1           0        0.240817    2.213926   -2.239406
     35          1           0        2.186491    0.087263    2.245142
     36          1           0        4.396875    0.979880    1.672259
     37          1           0        4.783376    1.977530   -0.592308
     38          1           0        2.923265    2.021532   -2.217939
     39          1           0       -3.192658    1.854113   -1.875543
     40          1           0       -4.458077    2.663179    0.100869
     41          1           0       -3.608212    2.178996    2.390487
     42          1           0       -1.488227    0.929378    2.681042
 ---------------------------------------------------------------------

 SCF Done:  E(RM062X) =  -808.597250911     A.U. after    1 cycles

      1  C    Isotropic =   146.5591   Anisotropy =    59.5769

      2  N    Isotropic =   220.3757   Anisotropy =    67.6270

      3  C    Isotropic =   135.4376   Anisotropy =    50.8331

      4  C    Isotropic =   156.2989   Anisotropy =    28.0132

      5  C    Isotropic =   136.0928   Anisotropy =    49.9467

      6  N    Isotropic =   176.1101   Anisotropy =    70.7063

      7  C    Isotropic =     6.8435   Anisotropy =   177.7332

      8  C    Isotropic =    21.3321   Anisotropy =   218.2468

      9  C    Isotropic =   150.9869   Anisotropy =    23.1218

     10  C    Isotropic =   148.5778   Anisotropy =    23.7928

     11  C    Isotropic =    31.8474   Anisotropy =   203.5054

     12  C    Isotropic =    18.6920   Anisotropy =   180.3412

     13  C    Isotropic =    45.1543   Anisotropy =   202.9278

     14  C    Isotropic =    38.2442   Anisotropy =   204.1321

     15  C    Isotropic =    44.4664   Anisotropy =   199.9566

     16  C    Isotropic =    30.8988   Anisotropy =   194.9420

     17  C    Isotropic =    36.7285   Anisotropy =   186.1142

     18  C    Isotropic =    40.2537   Anisotropy =   204.6699

     19  C    Isotropic =    37.6936   Anisotropy =   209.5450

     20  C    Isotropic =    42.1434   Anisotropy =   198.2201

     21  H    Isotropic =    29.5839   Anisotropy =    10.8650

     22  H    Isotropic =    29.5744   Anisotropy =     6.9263

     23  H    Isotropic =    29.3296   Anisotropy =    10.3350

     24  H    Isotropic =    32.7169   Anisotropy =    13.0636

     25  H    Isotropic =    29.5347   Anisotropy =     8.3206

     26  H    Isotropic =    29.1504   Anisotropy =     5.7203

     27  H    Isotropic =    30.7173   Anisotropy =    10.2023

     28  H    Isotropic =    29.6678   Anisotropy =     7.4151

     29  H    Isotropic =    28.1903   Anisotropy =     3.4262

     30  H    Isotropic =    27.6987   Anisotropy =     8.8389

     31  H    Isotropic =    27.9484   Anisotropy =     8.0238

     32  H    Isotropic =    29.2521   Anisotropy =     8.9018

     33  H    Isotropic =    28.5556   Anisotropy =     8.7206

     34  H    Isotropic =    28.8937   Anisotropy =     7.5075

     35  H    Isotropic =    24.1357   Anisotropy =    11.6058

     36  H    Isotropic =    24.0618   Anisotropy =     5.9557

     37  H    Isotropic =    24.3917   Anisotropy =     4.7379

     38  H    Isotropic =    24.0070   Anisotropy =     9.5674

     39  H    Isotropic =    23.9734   Anisotropy =     8.3085

     40  H    Isotropic =    24.0887   Anisotropy =     5.2348

     41  H    Isotropic =    24.0032   Anisotropy =     5.8465

     42  H    Isotropic =    23.9938   Anisotropy =    11.2098

 The electronic state is 1-A.
 Alpha  occ. eigenvalues --  -14.75322 -14.73086 -10.57880 -10.57061 -10.56337
 Alpha  occ. eigenvalues --  -10.55422 -10.55101 -10.54489 -10.53947 -10.53876
 Alpha  occ. eigenvalues --  -10.53640 -10.53554 -10.53526 -10.53514 -10.53378
 Alpha  occ. eigenvalues --  -10.53375 -10.53350 -10.53336 -10.53316 -10.53054
 Alpha  occ. eigenvalues --   -1.05672  -1.00882  -0.95556  -0.94469  -0.89551
 Alpha  occ. eigenvalues --   -0.86926  -0.84826  -0.84321  -0.81575  -0.79728
 Alpha  occ. eigenvalues --   -0.76647  -0.73564  -0.72566  -0.69003  -0.68198
 Alpha  occ. eigenvalues --   -0.66626  -0.65418  -0.63602  -0.58872  -0.57771
 Alpha  occ. eigenvalues --   -0.55748  -0.54797  -0.54554  -0.53568  -0.53221
 Alpha  occ. eigenvalues --   -0.52120  -0.51005  -0.49973  -0.49636  -0.49547
 Alpha  occ. eigenvalues --   -0.47909  -0.47006  -0.46775  -0.45404  -0.44882
 Alpha  occ. eigenvalues --   -0.44286  -0.43457  -0.42876  -0.42034  -0.41203
 Alpha  occ. eigenvalues --   -0.40749  -0.40117  -0.39701  -0.39176  -0.38643
 Alpha  occ. eigenvalues --   -0.38194  -0.34252  -0.29812  -0.29457  -0.29157
 Alpha  occ. eigenvalues --   -0.28530  -0.24607
 Alpha virt. eigenvalues --    0.01841   0.03015   0.03138   0.03573   0.06140
 Alpha virt. eigenvalues --    0.07199   0.07899   0.09068   0.09466   0.09801
 Alpha virt. eigenvalues --    0.10366   0.10830   0.12074   0.12853   0.13188

 Mulliken charges:
               1
     1  C   -0.322985
     2  N   -0.383205
     3  C   -0.205190
     4  C   -0.337810
     5  C   -0.305368
     6  N   -0.129421
     7  C    0.128027
     8  C    0.088929
     9  C   -0.384778
    10  C   -0.325245
    11  C    0.053442
    12  C    0.136652
    13  C   -0.247950
    14  C   -0.144837
    15  C   -0.169868
    16  C   -0.170371
    17  C   -0.141464
    18  C   -0.157462
    19  C   -0.141161
    20  C   -0.217444
    21  H    0.127058
    22  H    0.141732
    23  H    0.142052
    24  H    0.210397
    25  H    0.136108
    26  H    0.176723
    27  H    0.151931
    28  H    0.175779
    29  H    0.182941
    30  H    0.171723
    31  H    0.131252
    32  H    0.151636
    33  H    0.155308
    34  H    0.172228
    35  H    0.166344
    36  H    0.139444
    37  H    0.138113
    38  H    0.139006
    39  H    0.133539
    40  H    0.138770
    41  H    0.139521
    42  H    0.155905
 Sum of Mulliken charges =  -0.00000

 Dipole moment (field-independent basis, Debye):
    X=             -0.0483    Y=             -1.6498    Z=              0.0619  Tot=              1.6516
 Quadrupole moment (field-independent basis, Debye-Ang):
   XX=           -119.0668   YY=           -117.5297   ZZ=           -111.5486
   XY=             -0.6228   XZ=              1.0934   YZ=             -4.0869

 1\1\GINC-NOTCH361\SP\RM062X\def2TZVP\C18H22N2\U6032257\23-Sep-2022\0\\
 # M062X/def2tzvp int=(grid=ultrafine) nmr=giao guess=read geom=check\\
 SecN5.xyz\\0,1\C,0,1.1265476392,-0.8910998594,3.796539711\N,0,0.757327
 3036,-1.999405565,2.9267020043\C,0,-0.5493689682,-1.8245590933,2.30234
 36357\C,0,-0.8993498658,-2.9981225747,1.3891710216\C,0,0.1688654684,-3
 .2852481693,0.3261016445\N,0,0.5342222167,-2.1006643592,-0.4492402901\
 C,0,1.8911489689,-2.0135920505,-0.8701629609\C,0,2.577024799,-0.800727
 5185,-0.7024215647\C,0,1.8334551249,0.3555738601,-0.1012205235\C,0,0.7

 Normal termination of Gaussian 16 at Fri Sep 23 16:35:38 2022.
