 Gaussian 16, Revision C.01,

 ----------------------------------------------------------------------
 # B3LYP/6-31G(d,p) empiricaldispersion=GD3BJ int=(grid=ultrafine) opt
 freq=noraman
 ----------------------------------------------------------------------

 ---------
 SecN5.xyz
 ---------
 Symbolic Z-matrix:
 Charge =  0 Multiplicity = 1

 SCF Done:  E(RB3LYP) =  -808.766719638     A.U. after   14 cycles
 SCF Done:  E(RB3LYP) =  -808.772764179     A.U. after   12 cycles
 SCF Done:  E(RB3LYP) =  -808.773894093     A.U. after   12 cycles
 SCF Done:  E(RB3LYP) =  -808.774578048     A.U. after   11 cycles
 SCF Done:  E(RB3LYP) =  -808.775298365     A.U. after   12 cycles
 SCF Done:  E(RB3LYP) =  -808.775825381     A.U. after   12 cycles
 SCF Done:  E(RB3LYP) =  -808.776152898     A.U. after   11 cycles
 SCF Done:  E(RB3LYP) =  -808.775983796     A.U. after   12 cycles
 SCF Done:  E(RB3LYP) =  -808.776374314     A.U. after   12 cycles
 SCF Done:  E(RB3LYP) =  -808.776433818     A.U. after   11 cycles
 SCF Done:  E(RB3LYP) =  -808.776423736     A.U. after   11 cycles
 SCF Done:  E(RB3LYP) =  -808.776446322     A.U. after   11 cycles
 SCF Done:  E(RB3LYP) =  -808.776446326     A.U. after    8 cycles
 SCF Done:  E(RB3LYP) =  -808.776447161     A.U. after    8 cycles
 SCF Done:  E(RB3LYP) =  -808.776447227     A.U. after    6 cycles
 SCF Done:  E(RB3LYP) =  -808.776447268     A.U. after    7 cycles
 Optimization completed.
    -- Stationary point found.
 Normal termination of Gaussian 16 at Fri Sep 23 16:19:19 2022.

 ----------------------------------------------------------------------
 #N Geom=AllCheck Guess=TCheck SCRF=Check GenChk RB3LYP/6-31G(d,p) Freq
 ----------------------------------------------------------------------

 Structure from the checkpoint file:  "SecN5_clust-7.chk"
 ---------
 SecN5.xyz
 ---------
 Charge =  0 Multiplicity = 1

 SCF Done:  E(RB3LYP) =  -808.776447268     A.U. after    1 cycles

                      1                      2                      3
                      A                      A                      A
 Frequencies --     26.0031                35.7801                43.8765
 Red. masses --      3.0649                 3.3302                 4.0792
 Frc consts  --      0.0012                 0.0025                 0.0046
 IR Inten    --      0.3748                 0.5783                 0.0958

                      4                      5                      6
                      A                      A                      A
 Frequencies --     51.7200                87.8686               110.6694
 Red. masses --      3.6630                 3.3925                 2.8358
 Frc consts  --      0.0058                 0.0154                 0.0205
 IR Inten    --      0.2540                 0.5388                 0.2840

                      7                      8                      9
                      A                      A                      A
 Frequencies --    134.3314               140.3446               171.8647
 Red. masses --      2.7225                 3.2317                 1.9867
 Frc consts  --      0.0289                 0.0375                 0.0346
 IR Inten    --      0.7196                 0.8348                 0.8137

                     10                     11                     12
                      A                      A                      A
 Frequencies --    185.3677               234.6632               266.4161
 Red. masses --      2.1212                 3.2322                 1.9247
 Frc consts  --      0.0429                 0.1049                 0.0805
 IR Inten    --      1.0934                 0.1863                 1.7829

                     13                     14                     15
                      A                      A                      A
 Frequencies --    275.2178               293.3803               309.0826
 Red. masses --      3.0438                 2.5812                 3.4097
 Frc consts  --      0.1358                 0.1309                 0.1919
 IR Inten    --      0.6708                 3.5213                 1.2410

                     16                     17                     18
                      A                      A                      A
 Frequencies --    341.8936               360.6898               379.0473
 Red. masses --      4.1133                 2.9115                 3.0556
 Frc consts  --      0.2833                 0.2232                 0.2587
 IR Inten    --      1.7591                 0.7572                 1.6148

                     19                     20                     21
                      A                      A                      A
 Frequencies --    426.5500               447.5733               465.6906
 Red. masses --      4.4441                 2.8118                 2.9965
 Frc consts  --      0.4764                 0.3319                 0.3829
 IR Inten    --      8.4338                 1.9757                 7.5297

                     22                     23                     24
                      A                      A                      A
 Frequencies --    473.4951               509.0551               525.9394
 Red. masses --      3.7041                 2.9964                 3.8485
 Frc consts  --      0.4893                 0.4575                 0.6272
 IR Inten    --      2.9289                14.8195                 0.1231

                     25                     26                     27
                      A                      A                      A
 Frequencies --    553.5859               577.5760               603.9805
 Red. masses --      3.9671                 4.6852                 3.3167
 Frc consts  --      0.7163                 0.9209                 0.7129
 IR Inten    --      0.0265                 0.7923                 1.1481

                     28                     29                     30
                      A                      A                      A
 Frequencies --    616.9849               637.2885               704.6072
 Red. masses --      3.8372                 5.5568                 4.8951
 Frc consts  --      0.8606                 1.3297                 1.4319
 IR Inten    --     15.7329                 4.0939                 1.0049

                     31                     32                     33
                      A                      A                      A
 Frequencies --    727.7885               758.1064               764.3488
 Red. masses --      3.0992                 1.9965                 1.3640
 Frc consts  --      0.9672                 0.6760                 0.4695
 IR Inten    --      1.7563                21.2264                19.6701

                     34                     35                     36
                      A                      A                      A
 Frequencies --    773.2933               782.0633               787.2318
 Red. masses --      1.2279                 1.9047                 1.9632
 Frc consts  --      0.4326                 0.6864                 0.7168
 IR Inten    --      2.4682                38.7535                40.2053

                     37                     38                     39
                      A                      A                      A
 Frequencies --    790.2441               815.7976               864.3068
 Red. masses --      1.6955                 4.1507                 1.4609
 Frc consts  --      0.6238                 1.6276                 0.6430
 IR Inten    --     59.6522                 0.5390                 0.5130

                     40                     41                     42
                      A                      A                      A
 Frequencies --    869.2328               880.4749               911.7940
 Red. masses --      1.5490                 1.4789                 1.8535
 Frc consts  --      0.6896                 0.6755                 0.9079
 IR Inten    --      5.9653                 0.2303                 2.3780

                     43                     44                     45
                      A                      A                      A
 Frequencies --    934.3754               943.0783               946.2174
 Red. masses --      1.8575                 1.4875                 1.8162
 Frc consts  --      0.9555                 0.7795                 0.9580
 IR Inten    --      2.2374                 1.7639                 3.9889

                     46                     47                     48
                      A                      A                      A
 Frequencies --    948.0817               973.9657               978.9193
 Red. masses --      2.4491                 1.2480                 1.2508
 Frc consts  --      1.2970                 0.6975                 0.7062
 IR Inten    --      6.3243                 0.1338                 0.0870

                     49                     50                     51
                      A                      A                      A
 Frequencies --    987.6059              1042.7522              1052.0615
 Red. masses --      2.1896                 2.2801                 2.4895
 Frc consts  --      1.2583                 1.4607                 1.6235
 IR Inten    --      0.7763                 0.2607                 1.0601

                     52                     53                     54
                      A                      A                      A
 Frequencies --   1060.0200              1073.7137              1083.6790
 Red. masses --      3.1065                 2.2765                 2.9043
 Frc consts  --      2.0566                 1.5463                 2.0095
 IR Inten    --      4.3222                 2.4354                 5.8617

                     55                     56                     57
                      A                      A                      A
 Frequencies --   1096.2098              1117.8023              1138.2239
 Red. masses --      2.2966                 1.5994                 1.8999
 Frc consts  --      1.6260                 1.1774                 1.4502
 IR Inten    --      5.8813                 1.9581                19.6483

                     58                     59                     60
                      A                      A                      A
 Frequencies --   1155.6115              1160.9418              1176.6057
 Red. masses --      1.9502                 1.5735                 2.7712
 Frc consts  --      1.5344                 1.2495                 2.2604
 IR Inten    --     19.3491                 1.2099                45.7190

                     61                     62                     63
                      A                      A                      A
 Frequencies --   1188.8896              1193.2881              1194.5682
 Red. masses --      1.1107                 1.4127                 1.3565
 Frc consts  --      0.9250                 1.1852                 1.1405
 IR Inten    --      0.6342                 2.5432                 2.6618

                     64                     65                     66
                      A                      A                      A
 Frequencies --   1197.8373              1209.8173              1234.0994
 Red. masses --      1.1563                 1.7776                 2.3380
 Frc consts  --      0.9775                 1.5329                 2.0979
 IR Inten    --      2.4136                 0.9583                 7.5732

                     67                     68                     69
                      A                      A                      A
 Frequencies --   1246.8032              1254.3146              1263.3113
 Red. masses --      1.7249                 1.3268                 2.4937
 Frc consts  --      1.5798                 1.2299                 2.3448
 IR Inten    --     35.9818                 8.3567                65.7858

                     70                     71                     72
                      A                      A                      A
 Frequencies --   1291.7742              1300.5315              1324.1114
 Red. masses --      1.6178                 1.4285                 1.3250
 Frc consts  --      1.5905                 1.4235                 1.3688
 IR Inten    --     44.4588                 1.9284                26.7303

                     73                     74                     75
                      A                      A                      A
 Frequencies --   1328.4914              1337.9159              1342.8556
 Red. masses --      1.7159                 1.1795                 3.4198
 Frc consts  --      1.7843                 1.2439                 3.6333
 IR Inten    --      9.7595                12.9515                27.2622

                     76                     77                     78
                      A                      A                      A
 Frequencies --   1363.2765              1370.3362              1376.2319
 Red. masses --      3.1959                 2.1113                 1.5231
 Frc consts  --      3.4996                 2.3359                 1.6997
 IR Inten    --      2.5155                43.9394                 3.7367

                     79                     80                     81
                      A                      A                      A
 Frequencies --   1395.9632              1414.9761              1430.5443
 Red. masses --      1.4778                 1.3953                 1.4925
 Frc consts  --      1.6967                 1.6459                 1.7995
 IR Inten    --      7.0178                10.3515                41.4693

                     82                     83                     84
                      A                      A                      A
 Frequencies --   1470.0925              1485.9965              1490.4323
 Red. masses --      1.1819                 1.4942                 1.2637
 Frc consts  --      1.5049                 1.9441                 1.6539
 IR Inten    --      0.6529                11.9740                11.9318

                     85                     86                     87
                      A                      A                      A
 Frequencies --   1495.2217              1497.0579              1502.4545
 Red. masses --      1.4932                 1.2012                 1.5113
 Frc consts  --      1.9669                 1.5861                 2.0100
 IR Inten    --      5.4242                10.7984                26.7743

                     88                     89                     90
                      A                      A                      A
 Frequencies --   1503.0004              1512.7905              1519.4717
 Red. masses --      1.3084                 1.0919                 1.1250
 Frc consts  --      1.7415                 1.4723                 1.5303
 IR Inten    --     11.5105                 2.3556                14.7900

                     91                     92                     93
                      A                      A                      A
 Frequencies --   1530.3492              1534.4135              1539.1918
 Red. masses --      1.4195                 1.1124                 1.4708
 Frc consts  --      1.9586                 1.5431                 2.0530
 IR Inten    --     80.6706                24.0638                45.1681

                     94                     95                     96
                      A                      A                      A
 Frequencies --   1546.6461              1631.6351              1642.1276
 Red. masses --      2.6313                 6.1036                 6.6164
 Frc consts  --      3.7085                 9.5737                10.5119
 IR Inten    --     19.3573                14.8969                 6.9892

                     97                     98                     99
                      A                      A                      A
 Frequencies --   1656.3408              1663.4068              2907.5852
 Red. masses --      5.8995                 5.7751                 1.0725
 Frc consts  --      9.5360                 9.4147                 5.3423
 IR Inten    --     24.1929                10.8498                71.6803

                    100                    101                    102
                      A                      A                      A
 Frequencies --   2942.1943              2964.5146              3021.1240
 Red. masses --      1.0610                 1.0729                 1.0618
 Frc consts  --      5.4113                 5.5556                 5.7100
 IR Inten    --     96.6824                50.2128                27.7437

                    103                    104                    105
                      A                      A                      A
 Frequencies --   3044.8618              3050.6269              3060.0471
 Red. masses --      1.0705                 1.0850                 1.0895
 Frc consts  --      5.8475                 5.9493                 6.0107
 IR Inten    --     11.3658                18.7176                46.4177

                    106                    107                    108
                      A                      A                      A
 Frequencies --   3066.4387              3080.6240              3094.8316
 Red. masses --      1.0658                 1.0709                 1.0887
 Frc consts  --      5.9045                 5.9878                 6.1437
 IR Inten    --     23.6977                43.5925                 9.1076

                    109                    110                    111
                      A                      A                      A
 Frequencies --   3096.3748              3120.0399              3124.2592
 Red. masses --      1.1046                 1.1015                 1.1024
 Frc consts  --      6.2396                 6.3177                 6.3402
 IR Inten    --     24.2369                35.3364                32.8394

                    112                    113                    114
                      A                      A                      A
 Frequencies --   3164.8215              3173.2336              3184.0891
 Red. masses --      1.0877                 1.0869                 1.0880
 Frc consts  --      6.4190                 6.4480                 6.4988
 IR Inten    --     12.9991                 8.0692                 8.6032

                    115                    116                    117
                      A                      A                      A
 Frequencies --   3184.9011              3198.5692              3204.5024
 Red. masses --      1.0878                 1.0924                 1.0955
 Frc consts  --      6.5013                 6.5847                 6.6280
 IR Inten    --     10.1684                28.4401                32.8826

                    118                    119                    120
                      A                      A                      A
 Frequencies --   3208.0497              3223.6149              3528.7162
 Red. masses --      1.0975                 1.0920                 1.0746
 Frc consts  --      6.6550                 6.6856                 7.8839
 IR Inten    --     20.6196                13.8604                 1.2223

 - Thermochemistry -
 -------------------
 Temperature   298.150 Kelvin.  Pressure   1.00000 Atm.
 Atom     1 has atomic number  6 and mass  12.00000

 Molecular mass:   266.17830 amu.
 Principal axes and moments of inertia in atomic units:
                           1         2         3
     Eigenvalues --  4667.026157077.142969598.20123
           X            0.99949   0.03186   0.00099
           Y           -0.03187   0.99948   0.00384
           Z           -0.00087  -0.00387   0.99999
 This molecule is an asymmetric top.
 Rotational symmetry number  1.
 Warning -- assumption of classical behavior for rotation
           may cause significant error
 Rotational temperatures (Kelvin)      0.01856     0.01224     0.00902
 Rotational constants (GHZ):           0.38670     0.25501     0.18803
 Zero-point vibrational energy     961257.3 (Joules/Mol)
                                  229.74602 (Kcal/Mol)
 Warning -- explicit consideration of  28 degrees of freedom as
           vibrations may cause significant error
 Vibrational temperatures:     37.41    51.48    63.13    74.41   126.42
          (Kelvin)            159.23   193.27   201.92   247.27   266.70
                              337.63   383.31   395.98   422.11   444.70
                              491.91   518.95   545.36   613.71   643.96
                              670.02   681.25   732.42   756.71   796.49
                              831.00   868.99   887.70   916.92  1013.77
                             1047.13  1090.75  1099.73  1112.60  1125.21
                             1132.65  1136.99  1173.75  1243.54  1250.63
                             1266.81  1311.87  1344.36  1356.88  1361.40
                             1364.08  1401.32  1408.45  1420.94  1500.29
                             1513.68  1525.13  1544.83  1559.17  1577.20
                             1608.27  1637.65  1662.67  1670.34  1692.87
                             1710.55  1716.88  1718.72  1723.42  1740.66
                             1775.59  1793.87  1804.68  1817.62  1858.57
                             1871.17  1905.10  1911.40  1924.96  1932.07
                             1961.45  1971.61  1980.09  2008.48  2035.84
                             2058.23  2115.14  2138.02  2144.40  2151.29
                             2153.93  2161.70  2162.48  2176.57  2186.18
                             2201.83  2207.68  2214.55  2225.28  2347.56
                             2362.66  2383.10  2393.27  4183.37  4233.16
                             4265.28  4346.72  4380.88  4389.17  4402.73
                             4411.92  4432.33  4452.77  4454.99  4489.04
                             4495.11  4553.47  4565.58  4581.19  4582.36
                             4602.03  4610.56  4615.67  4638.06  5077.04

 Zero-point correction=                           0.366124 (Hartree/Particle)
 Thermal correction to Energy=                    0.383899
 Thermal correction to Enthalpy=                  0.384843
 Thermal correction to Gibbs Free Energy=         0.319104
 Sum of electronic and zero-point Energies=           -808.410324
 Sum of electronic and thermal Energies=              -808.392548
 Sum of electronic and thermal Enthalpies=            -808.391604
 Sum of electronic and thermal Free Energies=         -808.457343

                     E (Thermal)             CV                S
                      KCal/Mol        Cal/Mol-Kelvin    Cal/Mol-Kelvin
 Total                  240.900             70.466            138.361
 Electronic               0.000              0.000              0.000
 Translational            0.889              2.981             42.636
 Rotational               0.889              2.981             34.116
 Vibrational            239.123             64.505             61.609
 Vibration     1          0.593              1.985              6.113
 Vibration     2          0.594              1.982              5.480
 Vibration     3          0.595              1.980              5.076
 Vibration     4          0.596              1.977              4.751
 Vibration     5          0.601              1.958              3.707
 Vibration     6          0.607              1.941              3.257
 Vibration     7          0.613              1.919              2.883
 Vibration     8          0.615              1.913              2.799
 Vibration     9          0.626              1.877              2.415
 Vibration    10          0.631              1.860              2.274
 Vibration    11          0.654              1.788              1.843
 Vibration    12          0.672              1.735              1.619
 Vibration    13          0.677              1.719              1.563
 Vibration    14          0.688              1.686              1.454
 Vibration    15          0.698              1.656              1.367
 Vibration    16          0.721              1.592              1.203
 Vibration    17          0.735              1.553              1.119
 Vibration    18          0.749              1.515              1.043
 Vibration    19          0.788              1.412              0.870
 Vibration    20          0.807              1.366              0.803
 Vibration    21          0.823              1.326              0.750
 Vibration    22          0.830              1.309              0.728
 Vibration    23          0.864              1.230              0.636
 Vibration    24          0.881              1.193              0.596
 Vibration    25          0.909              1.132              0.537
 Vibration    26          0.934              1.080              0.490
 Vibration    27          0.962              1.023              0.443
 Vibration    28          0.977              0.996              0.421

                           ! Non-Optimized Parameters !
 Normal termination of Gaussian 16 at Fri Sep 23 16:21:37 2022.

 ----------------------------------------------------------------------
 # M062X/def2tzvp int=(grid=ultrafine) pop=nbo7 polar prop=efg volume g
 uess=read geom=check
 ----------------------------------------------------------------------

 ---------
 SecN5.xyz
 ---------
 Structure from the checkpoint file:  "SecN5_clust-7.chk"
 Charge =  0 Multiplicity = 1

 SCF Done:  E(RM062X) =  -808.593263282     A.U. after   12 cycles

  Exact polarizability:     229.412     -23.005     237.350      20.572       9.338     192.876
 Approx polarizability:     269.631     -22.461     285.494      35.715      15.114     270.463

 Summary of Natural Population Analysis:

                                     Natural Population
             Natural    ---------------------------------------------
  Atom No    Charge        Core      Valence    Rydberg      Total
 --------------------------------------------------------------------
    C  1   -0.41685      1.99999     4.40486    0.01199     6.41685
    N  2   -0.61705      1.99999     5.59083    0.02622     7.61705
    C  3   -0.21177      1.99999     4.19849    0.01329     6.21177
    C  4   -0.41853      1.99999     4.40575    0.01278     6.41853
    C  5   -0.20158      1.99999     4.18811    0.01348     6.20158
    N  6   -0.45665      1.99999     5.43040    0.02626     7.45665
    C  7    0.16527      1.99999     3.81663    0.01811     5.83473
    C  8   -0.03015      1.99999     4.01262    0.01754     6.03015
    C  9   -0.41420      1.99999     4.40238    0.01183     6.41420
    C 10   -0.40264      1.99999     4.39166    0.01099     6.40264
    C 11   -0.04815      1.99999     4.03186    0.01629     6.04815
    C 12    0.17078      1.99999     3.81161    0.01761     5.82922
    C 13   -0.25034      1.99999     4.23382    0.01653     6.25034
    C 14   -0.20392      1.99999     4.18733    0.01660     6.20392
    C 15   -0.23131      1.99999     4.21461    0.01670     6.23131
    C 16   -0.18935      1.99999     4.17345    0.01590     6.18935
    C 17   -0.20264      1.99999     4.18634    0.01631     6.20264
    C 18   -0.22007      1.99999     4.20364    0.01644     6.22007
    C 19   -0.20956      1.99999     4.19316    0.01640     6.20956
    C 20   -0.23496      1.99999     4.21913    0.01584     6.23496
    H 21    0.16139      0.00000     0.83577    0.00283     0.83861
    H 22    0.19190      0.00000     0.80673    0.00137     0.80810
    H 23    0.20217      0.00000     0.79678    0.00105     0.79783
    H 24    0.35251      0.00000     0.64541    0.00209     0.64749
    H 25    0.15542      0.00000     0.84124    0.00334     0.84458
    H 26    0.19128      0.00000     0.80696    0.00177     0.80872
    H 27    0.20413      0.00000     0.79405    0.00182     0.79587
    H 28    0.22062      0.00000     0.77744    0.00194     0.77938
    H 29    0.21240      0.00000     0.78578    0.00183     0.78760
    H 30    0.16955      0.00000     0.82749    0.00296     0.83045
    H 31    0.22151      0.00000     0.77644    0.00205     0.77849
    H 32    0.21271      0.00000     0.78580    0.00149     0.78729
    H 33    0.21557      0.00000     0.78281    0.00162     0.78443
    H 34    0.21318      0.00000     0.78489    0.00193     0.78682
    H 35    0.21112      0.00000     0.78714    0.00174     0.78888
    H 36    0.21310      0.00000     0.78571    0.00119     0.78690
    H 37    0.21409      0.00000     0.78476    0.00115     0.78591
    H 38    0.20681      0.00000     0.79185    0.00134     0.79319
    H 39    0.21032      0.00000     0.78829    0.00139     0.78968
    H 40    0.21427      0.00000     0.78459    0.00114     0.78573
    H 41    0.21409      0.00000     0.78473    0.00118     0.78591
    H 42    0.21552      0.00000     0.78300    0.00148     0.78448
 ====================================================================
 * Total *  0.00000     39.99984   103.63432    0.36583   144.00000

 1\1\GINC-NOTCH344\SP\RM062X\def2TZVP\C18H22N2\U6032257\23-Sep-2022\0\\
 # M062X/def2tzvp int=(grid=ultrafine) pop=nbo7 polar prop=efg volume g
 uess=read geom=check\\SecN5.xyz\\0,1\C,0,-0.9086982747,-2.1270990588,4
 .6418064237\N,0,-1.2129757473,-3.2080136461,3.7109307767\C,0,-0.167945
 692,-3.4412439524,2.7164314373\C,0,-0.1421741225,-2.3517114146,1.64275
 53451\C,0,0.8813444859,-2.6642962964,0.5491893439\N,0,0.9632787996,-1.
 6062077544,-0.4580017272\C,0,2.2570023125,-1.3481258549,-0.9977517772\
 C,0,2.6646574844,-0.0144345115,-1.1595093023\C,0,1.6953642331,1.073529

 Normal termination of Gaussian 16 at Fri Sep 23 16:29:26 2022.
 Gaussian 16:  ES64L-G16RevC.01  3-Jul-2019

 --------------------------------------------------------------------
 # M062X/def2tzvp int=(grid=ultrafine) nmr=giao guess=read geom=check
 --------------------------------------------------------------------

 ---------
 SecN5.xyz
 ---------
 Structure from the checkpoint file:  "SecN5_clust-7.chk"
 Charge =  0 Multiplicity = 1

                         Standard orientation:
 ---------------------------------------------------------------------
 Center     Atomic      Atomic             Coordinates (Angstroms)
 Number     Number       Type             X           Y           Z
 ---------------------------------------------------------------------
      1          6           0       -4.906300   -1.435154    1.523377
      2          7           0       -4.792018   -0.936413    0.157475
      3          6           0       -3.559618   -1.339876   -0.516263
      4          6           0       -2.342517   -0.571595    0.002326
      5          6           0       -1.078522   -0.923273   -0.784965
      6          7           0        0.108961   -0.242648   -0.267923
      7          6           0        1.327652   -0.980624   -0.310831
      8          6           0        2.174496   -0.946596    0.808444
      9          6           0        1.773955   -0.093765    1.976859
     10          6           0        1.886010    1.398768    1.644183
     11          6           0        0.983103    1.942576    0.547050
     12          6           0        0.167244    1.179661   -0.321402
     13          6           0       -0.627246    1.858068   -1.265020
     14          6           0       -0.632567    3.244166   -1.362879
     15          6           0        0.178706    3.999561   -0.520004
     16          6           0        0.969634    3.337438    0.411854
     17          6           0        3.360568   -1.682740    0.783645
     18          6           0        3.698004   -2.468026   -0.318901
     19          6           0        2.842692   -2.513372   -1.419210
     20          6           0        1.664770   -1.767433   -1.417943
     21          1           0       -4.736472   -2.523655    1.621830
     22          1           0       -4.183270   -0.929745    2.170644
     23          1           0       -5.903547   -1.207601    1.910444
     24          1           0       -5.582759   -1.277491   -0.381244
     25          1           0       -3.365345   -2.427984   -0.428589
     26          1           0       -3.682663   -1.127498   -1.585554
     27          1           0       -2.157269   -0.803158    1.056628
     28          1           0       -2.555401    0.499061   -0.055413
     29          1           0       -0.885451   -1.994225   -0.683597
     30          1           0       -1.240497   -0.744156   -1.861033
     31          1           0        0.741719   -0.326747    2.261856
     32          1           0        2.413970   -0.312379    2.837587
     33          1           0        1.691398    1.981216    2.553261
     34          1           0        2.929610    1.606908    1.372435
     35          1           0       -1.248317    1.287497   -1.943768
     36          1           0       -1.263496    3.726059   -2.103623
     37          1           0        0.190831    5.083011   -0.580454
     38          1           0        1.598677    3.917702    1.083005
     39          1           0        4.016220   -1.653223    1.650018
     40          1           0        4.618531   -3.043322   -0.316300
     41          1           0        3.095578   -3.118334   -2.284686
     42          1           0        1.008975   -1.785206   -2.282232
 ---------------------------------------------------------------------

 SCF Done:  E(RM062X) =  -808.593263282     A.U. after    1 cycles

      1  C    Isotropic =   148.8143   Anisotropy =    54.8704

      2  N    Isotropic =   222.2385   Anisotropy =    68.1864

      3  C    Isotropic =   132.6191   Anisotropy =    50.5125

      4  C    Isotropic =   154.8781   Anisotropy =    24.6736

      5  C    Isotropic =   131.6578   Anisotropy =    50.5895

      6  N    Isotropic =   168.8031   Anisotropy =    81.5508

      7  C    Isotropic =     6.8991   Anisotropy =   175.9723

      8  C    Isotropic =    22.0675   Anisotropy =   219.3539

      9  C    Isotropic =   151.2836   Anisotropy =    24.1874

     10  C    Isotropic =   147.9735   Anisotropy =    24.9825

     11  C    Isotropic =    32.4747   Anisotropy =   202.5224

     12  C    Isotropic =    17.6514   Anisotropy =   179.0394

     13  C    Isotropic =    46.5609   Anisotropy =   203.9762

     14  C    Isotropic =    38.2176   Anisotropy =   206.5745

     15  C    Isotropic =    44.9091   Anisotropy =   202.2487

     16  C    Isotropic =    30.3212   Anisotropy =   192.6683

     17  C    Isotropic =    36.7080   Anisotropy =   187.2396

     18  C    Isotropic =    40.7368   Anisotropy =   207.1901

     19  C    Isotropic =    36.9596   Anisotropy =   208.7833

     20  C    Isotropic =    42.7071   Anisotropy =   198.0238

     21  H    Isotropic =    29.9177   Anisotropy =     9.1923

     22  H    Isotropic =    29.4449   Anisotropy =     6.8952

     23  H    Isotropic =    29.3804   Anisotropy =    10.1118

     24  H    Isotropic =    31.5747   Anisotropy =    15.7309

     25  H    Isotropic =    29.4943   Anisotropy =     5.5162

     26  H    Isotropic =    29.0836   Anisotropy =     5.1120

     27  H    Isotropic =    30.1581   Anisotropy =     6.0379

     28  H    Isotropic =    29.8607   Anisotropy =     8.0609

     29  H    Isotropic =    28.7512   Anisotropy =     6.1149

     30  H    Isotropic =    27.7345   Anisotropy =     5.9641

     31  H    Isotropic =    27.9201   Anisotropy =     4.2403

     32  H    Isotropic =    29.2425   Anisotropy =     9.2545

     33  H    Isotropic =    28.5549   Anisotropy =     8.7990

     34  H    Isotropic =    28.9212   Anisotropy =     7.1502

     35  H    Isotropic =    24.0945   Anisotropy =    11.2436

     36  H    Isotropic =    24.0417   Anisotropy =     6.2226

     37  H    Isotropic =    24.4122   Anisotropy =     4.7570

     38  H    Isotropic =    24.0225   Anisotropy =     9.4790

     39  H    Isotropic =    23.9394   Anisotropy =     8.1219

     40  H    Isotropic =    24.1167   Anisotropy =     5.2245

     41  H    Isotropic =    23.9465   Anisotropy =     6.1086

     42  H    Isotropic =    24.0399   Anisotropy =    11.2372

 The electronic state is 1-A.
 Alpha  occ. eigenvalues --  -14.75887 -14.73159 -10.58047 -10.57514 -10.56896
 Alpha  occ. eigenvalues --  -10.55995 -10.55084 -10.54547 -10.54357 -10.54040
 Alpha  occ. eigenvalues --  -10.53993 -10.53949 -10.53940 -10.53752 -10.53637
 Alpha  occ. eigenvalues --  -10.53504 -10.53382 -10.53331 -10.53039 -10.52818
 Alpha  occ. eigenvalues --   -1.05955  -1.00895  -0.95815  -0.94692  -0.89800
 Alpha  occ. eigenvalues --   -0.87178  -0.85008  -0.84535  -0.81801  -0.79931
 Alpha  occ. eigenvalues --   -0.77069  -0.73715  -0.72766  -0.68750  -0.67857
 Alpha  occ. eigenvalues --   -0.66671  -0.65449  -0.64225  -0.58966  -0.58402
 Alpha  occ. eigenvalues --   -0.56338  -0.55583  -0.54245  -0.54115  -0.53581
 Alpha  occ. eigenvalues --   -0.52264  -0.50795  -0.50395  -0.49920  -0.49446
 Alpha  occ. eigenvalues --   -0.48008  -0.47431  -0.46629  -0.45112  -0.44803
 Alpha  occ. eigenvalues --   -0.44287  -0.44225  -0.42954  -0.42118  -0.41513
 Alpha  occ. eigenvalues --   -0.41048  -0.40017  -0.39790  -0.39343  -0.38954
 Alpha  occ. eigenvalues --   -0.38375  -0.34743  -0.30182  -0.29597  -0.29170
 Alpha  occ. eigenvalues --   -0.28860  -0.24891
 Alpha virt. eigenvalues --    0.01635   0.02680   0.02961   0.03553   0.06139
 Alpha virt. eigenvalues --    0.07095   0.07525   0.08234   0.09071   0.09990
 Alpha virt. eigenvalues --    0.10338   0.10802   0.11721   0.12340   0.12903

 Mulliken charges:
               1
     1  C   -0.330662
     2  N   -0.355301
     3  C   -0.222044
     4  C   -0.248890
     5  C   -0.413596
     6  N   -0.142134
     7  C    0.101538
     8  C    0.072114
     9  C   -0.396888
    10  C   -0.321489
    11  C    0.046094
    12  C    0.168860
    13  C   -0.216494
    14  C   -0.149971
    15  C   -0.165856
    16  C   -0.181323
    17  C   -0.141913
    18  C   -0.156443
    19  C   -0.143424
    20  C   -0.205437
    21  H    0.123928
    22  H    0.146545
    23  H    0.141415
    24  H    0.208432
    25  H    0.147332
    26  H    0.132409
    27  H    0.145966
    28  H    0.187862
    29  H    0.187842
    30  H    0.178500
    31  H    0.175320
    32  H    0.148774
    33  H    0.154888
    34  H    0.169256
    35  H    0.158100
    36  H    0.139446
    37  H    0.138267
    38  H    0.138965
    39  H    0.136226
    40  H    0.140178
    41  H    0.141354
    42  H    0.162252
 Sum of Mulliken charges =  -0.00000

 Dipole moment (field-independent basis, Debye):
    X=             -0.6275    Y=             -1.4113    Z=              0.0788  Tot=              1.5465
 Quadrupole moment (field-independent basis, Debye-Ang):
   XX=           -114.5709   YY=           -118.5281   ZZ=           -115.4635
   XY=              4.5881   XZ=              6.4898   YZ=              3.0288

 1\1\GINC-NOTCH344\SP\RM062X\def2TZVP\C18H22N2\U6032257\23-Sep-2022\0\\
 # M062X/def2tzvp int=(grid=ultrafine) nmr=giao guess=read geom=check\\
 SecN5.xyz\\0,1\C,0,-0.9086982747,-2.1270990588,4.6418064237\N,0,-1.212
 9757473,-3.2080136461,3.7109307767\C,0,-0.167945692,-3.4412439524,2.71
 64314373\C,0,-0.1421741225,-2.3517114146,1.6427553451\C,0,0.8813444859
 ,-2.6642962964,0.5491893439\N,0,0.9632787996,-1.6062077544,-0.45800172
 72\C,0,2.2570023125,-1.3481258549,-0.9977517772\C,0,2.6646574844,-0.01
 44345115,-1.1595093023\C,0,1.6953642331,1.0735291259,-0.799298028\C,0,

 Normal termination of Gaussian 16 at Fri Sep 23 16:32:29 2022.
