 Gaussian 16, Revision C.01,

 ----------------------------------------------------------------------
 # B3LYP/6-31G(d,p) empiricaldispersion=GD3BJ int=(grid=ultrafine) opt
 freq=noraman
 ----------------------------------------------------------------------

 ---------
 SecN5.xyz
 ---------
 Symbolic Z-matrix:
 Charge =  0 Multiplicity = 1

 SCF Done:  E(RB3LYP) =  -808.763927702     A.U. after   14 cycles
 SCF Done:  E(RB3LYP) =  -808.772087191     A.U. after   12 cycles
 SCF Done:  E(RB3LYP) =  -808.773623230     A.U. after   12 cycles
 SCF Done:  E(RB3LYP) =  -808.774306836     A.U. after   12 cycles
 SCF Done:  E(RB3LYP) =  -808.774649982     A.U. after   11 cycles
 SCF Done:  E(RB3LYP) =  -808.774779538     A.U. after   11 cycles
 SCF Done:  E(RB3LYP) =  -808.774888669     A.U. after   11 cycles
 SCF Done:  E(RB3LYP) =  -808.774948867     A.U. after   10 cycles
 SCF Done:  E(RB3LYP) =  -808.774963976     A.U. after    9 cycles
 SCF Done:  E(RB3LYP) =  -808.774967578     A.U. after    8 cycles
 SCF Done:  E(RB3LYP) =  -808.774968391     A.U. after    8 cycles
 SCF Done:  E(RB3LYP) =  -808.774968616     A.U. after    7 cycles
 SCF Done:  E(RB3LYP) =  -808.774968780     A.U. after    7 cycles
 SCF Done:  E(RB3LYP) =  -808.774968824     A.U. after    7 cycles
 Optimization completed.
    -- Stationary point found.
 Normal termination of Gaussian 16 at Fri Sep 23 16:19:01 2022.

 ----------------------------------------------------------------------
 #N Geom=AllCheck Guess=TCheck SCRF=Check GenChk RB3LYP/6-31G(d,p) Freq
 ----------------------------------------------------------------------

 Structure from the checkpoint file:  "SecN5_clust-5.chk"
 ---------
 SecN5.xyz
 ---------
 Charge =  0 Multiplicity = 1

 SCF Done:  E(RB3LYP) =  -808.774968824     A.U. after    1 cycles

                      1                      2                      3
                      A                      A                      A
 Frequencies --     35.9972                38.5722                53.9385
 Red. masses --      3.9371                 3.8190                 3.3624
 Frc consts  --      0.0030                 0.0033                 0.0058
 IR Inten    --      1.0173                 0.3956                 1.2742

                      4                      5                      6
                      A                      A                      A
 Frequencies --     64.4748                94.9202               113.6749
 Red. masses --      2.9582                 3.1221                 2.8488
 Frc consts  --      0.0072                 0.0166                 0.0217
 IR Inten    --      1.4366                 2.7549                 3.7716

                      7                      8                      9
                      A                      A                      A
 Frequencies --    122.4324               160.7920               164.7491
 Red. masses --      3.7387                 3.6240                 2.7701
 Frc consts  --      0.0330                 0.0552                 0.0443
 IR Inten    --      0.2536                 0.7587                 0.2098

                     10                     11                     12
                      A                      A                      A
 Frequencies --    218.4298               240.4358               265.3954
 Red. masses --      2.9854                 2.0225                 1.4861
 Frc consts  --      0.0839                 0.0689                 0.0617
 IR Inten    --      1.4761                 1.3436                 0.3579

                     13                     14                     15
                      A                      A                      A
 Frequencies --    269.1643               306.2288               312.1802
 Red. masses --      3.0638                 3.2545                 2.7339
 Frc consts  --      0.1308                 0.1798                 0.1570
 IR Inten    --      0.5045                 3.3618                 1.2285

                     16                     17                     18
                      A                      A                      A
 Frequencies --    325.7466               351.9420               369.6024
 Red. masses --      3.0188                 3.2846                 3.4811
 Frc consts  --      0.1887                 0.2397                 0.2802
 IR Inten    --      1.7315                 0.0694                 2.3328

                     19                     20                     21
                      A                      A                      A
 Frequencies --    383.2962               451.8126               468.9231
 Red. masses --      3.5631                 2.8526                 3.4269
 Frc consts  --      0.3084                 0.3431                 0.4440
 IR Inten    --      4.0856                 3.1155                 0.2649

                     22                     23                     24
                      A                      A                      A
 Frequencies --    488.1788               494.9117               537.4244
 Red. masses --      3.0595                 3.6848                 3.6560
 Frc consts  --      0.4296                 0.5318                 0.6222
 IR Inten    --      0.3471                 4.9415                 3.1147

                     25                     26                     27
                      A                      A                      A
 Frequencies --    560.4723               570.9771               598.9785
 Red. masses --      3.7654                 4.2892                 3.0677
 Frc consts  --      0.6969                 0.8239                 0.6485
 IR Inten    --      0.5247                 1.0337                 2.0192

                     28                     29                     30
                      A                      A                      A
 Frequencies --    624.8358               645.7712               703.4216
 Red. masses --      5.2561                 4.3920                 4.4108
 Frc consts  --      1.2090                 1.0791                 1.2859
 IR Inten    --      1.1578                12.7363                 2.9907

                     31                     32                     33
                      A                      A                      A
 Frequencies --    733.7169               750.2610               762.6512
 Red. masses --      3.4145                 1.5460                 1.6435
 Frc consts  --      1.0830                 0.5127                 0.5632
 IR Inten    --      4.9007                22.5736                33.9464

                     34                     35                     36
                      A                      A                      A
 Frequencies --    767.4869               779.9595               787.1997
 Red. masses --      1.8775                 1.7971                 1.8169
 Frc consts  --      0.6516                 0.6441                 0.6634
 IR Inten    --     30.0707                42.2698                27.4625

                     37                     38                     39
                      A                      A                      A
 Frequencies --    795.6035               815.8635               875.5027
 Red. masses --      1.5899                 3.5585                 1.6381
 Frc consts  --      0.5930                 1.3956                 0.7398
 IR Inten    --     33.4220                 1.0403                 0.3392

                     40                     41                     42
                      A                      A                      A
 Frequencies --    880.9519               883.3564               898.9519
 Red. masses --      1.5205                 1.8146                 1.9288
 Frc consts  --      0.6953                 0.8343                 0.9184
 IR Inten    --      6.0317                 6.5624                13.5858

                     43                     44                     45
                      A                      A                      A
 Frequencies --    938.3552               946.5830               950.6794
 Red. masses --      1.9709                 1.4374                 1.4159
 Frc consts  --      1.0225                 0.7588                 0.7540
 IR Inten    --     15.6317                 3.2219                 1.7723

                     46                     47                     48
                      A                      A                      A
 Frequencies --    958.1026               976.8378               982.0538
 Red. masses --      2.1078                 2.1374                 1.2637
 Frc consts  --      1.1400                 1.2016                 0.7181
 IR Inten    --      1.4071                 0.5131                 0.1749

                     49                     50                     51
                      A                      A                      A
 Frequencies --    982.8908              1046.3928              1053.0215
 Red. masses --      1.2620                 2.7796                 1.8021
 Frc consts  --      0.7183                 1.7932                 1.1774
 IR Inten    --      0.4688                12.7435                 0.8000

                     52                     53                     54
                      A                      A                      A
 Frequencies --   1056.0175              1073.2698              1088.7651
 Red. masses --      2.5500                 2.6917                 2.5830
 Frc consts  --      1.6755                 1.8268                 1.8040
 IR Inten    --      1.8737                 2.4951                 6.3242

                     55                     56                     57
                      A                      A                      A
 Frequencies --   1095.1704              1106.2697              1139.1011
 Red. masses --      2.1138                 1.9985                 1.8581
 Frc consts  --      1.4937                 1.4411                 1.4205
 IR Inten    --     10.1803                10.6323                17.6841

                     58                     59                     60
                      A                      A                      A
 Frequencies --   1149.2461              1157.7797              1166.1444
 Red. masses --      2.2664                 1.9870                 1.6841
 Frc consts  --      1.7637                 1.5693                 1.3493
 IR Inten    --     17.4009                34.6918                14.2041

                     61                     62                     63
                      A                      A                      A
 Frequencies --   1189.4353              1189.6870              1193.4348
 Red. masses --      1.1419                 1.1709                 1.7080
 Frc consts  --      0.9519                 0.9764                 1.4333
 IR Inten    --      0.4817                 2.1321                 3.9588

                     64                     65                     66
                      A                      A                      A
 Frequencies --   1197.0368              1214.7763              1232.7163
 Red. masses --      1.2229                 1.7095                 1.6540
 Frc consts  --      1.0324                 1.4863                 1.4809
 IR Inten    --      0.4430                 1.3056                33.8001

                     67                     68                     69
                      A                      A                      A
 Frequencies --   1234.2789              1249.2496              1270.7709
 Red. masses --      1.8567                 1.3703                 2.6208
 Frc consts  --      1.6666                 1.2600                 2.4936
 IR Inten    --     28.0327                 6.3418                63.2705

                     70                     71                     72
                      A                      A                      A
 Frequencies --   1291.9687              1303.8229              1330.4436
 Red. masses --      1.5924                 1.4401                 1.6081
 Frc consts  --      1.5660                 1.4424                 1.6771
 IR Inten    --     66.5927                 7.0237                 7.4281

                     73                     74                     75
                      A                      A                      A
 Frequencies --   1331.0561              1344.4823              1355.1213
 Red. masses --      1.2985                 6.0057                 1.4326
 Frc consts  --      1.3554                 6.3962                 1.5500
 IR Inten    --      9.4451                21.0929                 2.2521

                     76                     77                     78
                      A                      A                      A
 Frequencies --   1361.6074              1369.1387              1395.0088
 Red. masses --      2.8497                 1.6370                 1.4595
 Frc consts  --      3.1128                 1.8080                 1.6735
 IR Inten    --      1.5181                 3.4610                 4.2308

                     79                     80                     81
                      A                      A                      A
 Frequencies --   1401.4406              1409.2570              1422.6324
 Red. masses --      1.3596                 1.8047                 1.3336
 Frc consts  --      1.5732                 2.1117                 1.5902
 IR Inten    --     17.6224                58.7680                17.1195

                     82                     83                     84
                      A                      A                      A
 Frequencies --   1471.4114              1484.3112              1489.9457
 Red. masses --      1.1761                 1.4322                 1.3414
 Frc consts  --      1.5002                 1.8590                 1.7544
 IR Inten    --      2.9416                 8.8929                13.7384

                     85                     86                     87
                      A                      A                      A
 Frequencies --   1493.3541              1496.2136              1501.7575
 Red. masses --      1.2290                 1.4080                 1.1099
 Frc consts  --      1.6148                 1.8571                 1.4747
 IR Inten    --     22.1456                 9.2647                18.9826

                     88                     89                     90
                      A                      A                      A
 Frequencies --   1504.2675              1505.4326              1512.5780
 Red. masses --      1.7648                 1.1340                 1.1172
 Frc consts  --      2.3528                 1.5142                 1.5060
 IR Inten    --     15.6683                17.3935                 8.7469

                     91                     92                     93
                      A                      A                      A
 Frequencies --   1525.8499              1533.1958              1537.3705
 Red. masses --      1.0982                 1.0597                 2.4450
 Frc consts  --      1.5065                 1.4677                 3.4048
 IR Inten    --     15.1266                12.2519               180.6392

                     94                     95                     96
                      A                      A                      A
 Frequencies --   1547.6012              1628.3197              1639.5514
 Red. masses --      2.5135                 6.0322                 6.5351
 Frc consts  --      3.5469                 9.4234                10.3502
 IR Inten    --     19.1646                14.8585                 6.2927

                     97                     98                     99
                      A                      A                      A
 Frequencies --   1655.0854              1663.3596              2912.9963
 Red. masses --      5.7839                 5.7257                 1.0737
 Frc consts  --      9.3349                 9.3337                 5.3679
 IR Inten    --     30.2991                10.7660                73.1416

                    100                    101                    102
                      A                      A                      A
 Frequencies --   2951.1985              3022.0675              3040.5508
 Red. masses --      1.0595                 1.0647                 1.0619
 Frc consts  --      5.4371                 5.7291                 5.7842
 IR Inten    --    128.3292                25.9588                35.7273

                    103                    104                    105
                      A                      A                      A
 Frequencies --   3045.8465              3052.0605              3066.3871
 Red. masses --      1.0633                 1.0806                 1.0710
 Frc consts  --      5.8117                 5.9307                 5.9335
 IR Inten    --     19.3872                25.2848                17.2825

                    106                    107                    108
                      A                      A                      A
 Frequencies --   3067.2165              3068.2363              3085.2626
 Red. masses --      1.0954                 1.0745                 1.0988
 Frc consts  --      6.0719                 5.9596                 6.1625
 IR Inten    --     47.7187                52.1914                29.3459

                    109                    110                    111
                      A                      A                      A
 Frequencies --   3096.2574              3115.1234              3117.8671
 Red. masses --      1.1037                 1.1044                 1.1020
 Frc consts  --      6.2339                 6.3142                 6.3116
 IR Inten    --     26.8657                31.0870                29.9899

                    112                    113                    114
                      A                      A                      A
 Frequencies --   3164.6347              3173.4167              3183.9523
 Red. masses --      1.0876                 1.0870                 1.0882
 Frc consts  --      6.4175                 6.4499                 6.4998
 IR Inten    --     13.3872                 7.9625                14.9857

                    115                    116                    117
                      A                      A                      A
 Frequencies --   3186.5348              3203.6842              3204.3871
 Red. masses --      1.0891                 1.0962                 1.0963
 Frc consts  --      6.5158                 6.6288                 6.6322
 IR Inten    --     13.2475                40.1881                25.2374

                    118                    119                    120
                      A                      A                      A
 Frequencies --   3232.7096              3234.9241              3526.1369
 Red. masses --      1.0915                 1.0920                 1.0737
 Frc consts  --      6.7208                 6.7327                 7.8657
 IR Inten    --      1.5193                 7.6352                 0.3380

 - Thermochemistry -
 -------------------
 Temperature   298.150 Kelvin.  Pressure   1.00000 Atm.
 Atom     1 has atomic number  6 and mass  12.00000

 Molecular mass:   266.17830 amu.
 Principal axes and moments of inertia in atomic units:
                           1         2         3
     Eigenvalues --  4200.778656732.03817**********
           X            0.99931  -0.03710   0.00045
           Y            0.03710   0.99930   0.00409
           Z           -0.00060  -0.00407   0.99999
 This molecule is an asymmetric top.
 Rotational symmetry number  1.
 Warning -- assumption of classical behavior for rotation
           may cause significant error
 Rotational temperatures (Kelvin)      0.02062     0.01287     0.00865
 Rotational constants (GHZ):           0.42962     0.26808     0.18018
 Zero-point vibrational energy     962182.1 (Joules/Mol)
                                  229.96704 (Kcal/Mol)
 Warning -- explicit consideration of  27 degrees of freedom as
           vibrations may cause significant error
 Vibrational temperatures:     51.79    55.50    77.61    92.76   136.57
          (Kelvin)            163.55   176.15   231.34   237.04   314.27
                              345.93   381.84   387.27   440.59   449.16
                              468.68   506.37   531.78   551.48   650.06
                              674.68   702.38   712.07   773.23   806.39
                              821.51   861.80   899.00   929.12  1012.07
                             1055.65  1079.46  1097.28  1104.24  1122.19
                             1132.60  1144.70  1173.85  1259.65  1267.49
                             1270.95  1293.39  1350.08  1361.92  1367.82
                             1378.50  1405.45  1412.96  1414.16  1505.53
                             1515.06  1519.37  1544.20  1566.49  1575.71
                             1591.68  1638.91  1653.51  1665.79  1677.82
                             1711.33  1711.69  1717.09  1722.27  1747.79
                             1773.60  1775.85  1797.39  1828.36  1858.85
                             1875.91  1914.21  1915.09  1934.41  1949.72
                             1959.05  1969.89  2007.11  2016.36  2027.61
                             2046.85  2117.03  2135.59  2143.70  2148.60
                             2152.72  2160.69  2164.31  2165.98  2176.26
                             2195.36  2205.93  2211.93  2226.65  2342.79
                             2358.95  2381.30  2393.20  4191.15  4246.12
                             4348.08  4374.67  4382.29  4391.23  4411.85
                             4413.04  4414.51  4439.00  4454.82  4481.97
                             4485.92  4553.20  4565.84  4581.00  4584.71
                             4609.39  4610.40  4651.15  4654.33  5073.32

 Zero-point correction=                           0.366476 (Hartree/Particle)
 Thermal correction to Energy=                    0.384140
 Thermal correction to Enthalpy=                  0.385085
 Thermal correction to Gibbs Free Energy=         0.320347
 Sum of electronic and zero-point Energies=           -808.408493
 Sum of electronic and thermal Energies=              -808.390828
 Sum of electronic and thermal Enthalpies=            -808.389884
 Sum of electronic and thermal Free Energies=         -808.454622

                     E (Thermal)             CV                S
                      KCal/Mol        Cal/Mol-Kelvin    Cal/Mol-Kelvin
 Total                  241.052             70.447            136.253
 Electronic               0.000              0.000              0.000
 Translational            0.889              2.981             42.636
 Rotational               0.889              2.981             34.004
 Vibrational            239.274             64.486             59.613
 Vibration     1          0.594              1.982              5.468
 Vibration     2          0.594              1.981              5.331
 Vibration     3          0.596              1.976              4.668
 Vibration     4          0.597              1.971              4.315
 Vibration     5          0.603              1.953              3.556
 Vibration     6          0.607              1.938              3.205
 Vibration     7          0.610              1.930              3.062
 Vibration     8          0.622              1.890              2.540
 Vibration     9          0.623              1.886              2.495
 Vibration    10          0.646              1.813              1.972
 Vibration    11          0.658              1.779              1.800
 Vibration    12          0.671              1.736              1.626
 Vibration    13          0.674              1.730              1.602
 Vibration    14          0.697              1.662              1.383
 Vibration    15          0.701              1.650              1.351
 Vibration    16          0.710              1.624              1.281
 Vibration    17          0.728              1.571              1.157
 Vibration    18          0.742              1.535              1.081
 Vibration    19          0.752              1.506              1.026
 Vibration    20          0.810              1.357              0.790
 Vibration    21          0.826              1.319              0.741
 Vibration    22          0.844              1.276              0.688
 Vibration    23          0.851              1.261              0.671
 Vibration    24          0.892              1.167              0.571
 Vibration    25          0.916              1.117              0.523
 Vibration    26          0.927              1.094              0.502
 Vibration    27          0.957              1.034              0.451

 Optimization completed.
    -- Stationary point found.
 Normal termination of Gaussian 16 at Fri Sep 23 16:21:40 2022.

 ----------------------------------------------------------------------
 # M062X/def2tzvp int=(grid=ultrafine) pop=nbo7 polar prop=efg volume g
 uess=read geom=check
 ----------------------------------------------------------------------

 ---------
 SecN5.xyz
 ---------
 Structure from the checkpoint file:  "SecN5_clust-5.chk"
 Charge =  0 Multiplicity = 1

 SCF Done:  E(RM062X) =  -808.591012033     A.U. after   11 cycles

  Exact polarizability:     263.160      16.566     249.005     -11.699       7.501     155.665
 Approx polarizability:     305.957      11.183     301.492     -20.049      13.618     223.360

 Summary of Natural Population Analysis:

                                     Natural Population
             Natural    ---------------------------------------------
  Atom No    Charge        Core      Valence    Rydberg      Total
 --------------------------------------------------------------------
    C  1   -0.40794      1.99999     4.39618    0.01176     6.40794
    N  2   -0.62937      1.99999     5.60330    0.02608     7.62937
    C  3   -0.21535      1.99999     4.20115    0.01420     6.21535
    C  4   -0.42794      1.99999     4.41648    0.01147     6.42794
    C  5   -0.20237      1.99999     4.18853    0.01385     6.20237
    N  6   -0.45729      1.99999     5.43231    0.02498     7.45729
    C  7    0.15699      1.99999     3.82491    0.01811     5.84301
    C  8   -0.02547      1.99999     4.00806    0.01741     6.02547
    C  9   -0.41545      1.99999     4.40378    0.01168     6.41545
    C 10   -0.40240      1.99999     4.39146    0.01094     6.40240
    C 11   -0.06007      1.99999     4.04381    0.01627     6.06007
    C 12    0.17693      1.99999     3.80603    0.01705     5.82307
    C 13   -0.26341      1.99999     4.24658    0.01684     6.26341
    C 14   -0.20101      1.99999     4.18441    0.01661     6.20101
    C 15   -0.23918      1.99999     4.22224    0.01694     6.23918
    C 16   -0.18787      1.99999     4.17182    0.01605     6.18787
    C 17   -0.20648      1.99999     4.18999    0.01650     6.20648
    C 18   -0.21479      1.99999     4.19838    0.01641     6.21479
    C 19   -0.21289      1.99999     4.19655    0.01634     6.21289
    C 20   -0.22450      1.99999     4.20834    0.01616     6.22450
    H 21    0.19050      0.00000     0.80796    0.00154     0.80950
    H 22    0.16313      0.00000     0.83420    0.00266     0.83687
    H 23    0.20165      0.00000     0.79725    0.00109     0.79835
    H 24    0.34924      0.00000     0.64817    0.00259     0.65076
    H 25    0.19483      0.00000     0.80325    0.00192     0.80517
    H 26    0.15918      0.00000     0.83744    0.00338     0.84082
    H 27    0.20879      0.00000     0.78981    0.00139     0.79121
    H 28    0.21496      0.00000     0.78330    0.00174     0.78504
    H 29    0.20571      0.00000     0.79210    0.00219     0.79429
    H 30    0.19556      0.00000     0.80206    0.00238     0.80444
    H 31    0.21340      0.00000     0.78512    0.00148     0.78660
    H 32    0.21943      0.00000     0.77874    0.00183     0.78057
    H 33    0.21411      0.00000     0.78388    0.00201     0.78589
    H 34    0.21398      0.00000     0.78443    0.00160     0.78602
    H 35    0.22507      0.00000     0.77240    0.00254     0.77493
    H 36    0.21339      0.00000     0.78539    0.00122     0.78661
    H 37    0.21339      0.00000     0.78545    0.00116     0.78661
    H 38    0.20565      0.00000     0.79298    0.00137     0.79435
    H 39    0.21047      0.00000     0.78811    0.00142     0.78953
    H 40    0.21458      0.00000     0.78428    0.00114     0.78542
    H 41    0.21446      0.00000     0.78437    0.00117     0.78554
    H 42    0.21836      0.00000     0.78021    0.00143     0.78164
 ====================================================================
 * Total *  0.00000     39.99984   103.63525    0.36491   144.00000

 1\1\GINC-NOTCH170\SP\RM062X\def2TZVP\C18H22N2\U6032257\23-Sep-2022\0\\
 # M062X/def2tzvp int=(grid=ultrafine) pop=nbo7 polar prop=efg volume g
 uess=read geom=check\\SecN5.xyz\\0,1\C,0,-1.9223024694,-3.388447021,4.
 1657931919\N,0,-1.2251264132,-2.6799928652,3.0995229972\C,0,0.21903637
 15,-2.610112841,3.3122400186\C,0,0.9144094727,-1.7847083616,2.22809652
 32\C,0,0.9354034501,-2.4910535776,0.8522103632\N,0,0.9837247049,-1.650
 6943978,-0.344456341\C,0,2.2610750748,-1.1663631177,-0.7434549539\C,0,
 2.7691188707,-1.4860540666,-2.0137137541\C,0,1.8829044169,-2.210675051

 Normal termination of Gaussian 16 at Fri Sep 23 16:30:00 2022.
 Gaussian 16:  ES64L-G16RevC.01  3-Jul-2019

 --------------------------------------------------------------------
 # M062X/def2tzvp int=(grid=ultrafine) nmr=giao guess=read geom=check
 --------------------------------------------------------------------

 ---------
 SecN5.xyz
 ---------
 Structure from the checkpoint file:  "SecN5_clust-5.chk"
 Charge =  0 Multiplicity = 1

                         Standard orientation:
 ---------------------------------------------------------------------
 Center     Atomic      Atomic             Coordinates (Angstroms)
 Number     Number       Type             X           Y           Z
 ---------------------------------------------------------------------
      1          6           0        5.390726   -1.069642    0.531740
      2          7           0        3.997275   -0.845404    0.167177
      3          6           0        3.205994   -2.074049    0.160525
      4          6           0        1.772718   -1.825012   -0.312661
      5          6           0        0.927811   -1.032712    0.712434
      6          7           0       -0.174525   -0.217426    0.201832
      7          6           0       -1.402454   -0.885033   -0.066292
      8          6           0       -2.576478   -0.491579    0.597583
      9          6           0       -2.537753    0.729491    1.468091
     10          6           0       -2.310065    1.982850    0.609840
     11          6           0       -0.908210    2.166197    0.054726
     12          6           0        0.060828    1.144094   -0.104946
     13          6           0        1.348412    1.508711   -0.553937
     14          6           0        1.676314    2.825013   -0.854889
     15          6           0        0.717319    3.827347   -0.733805
     16          6           0       -0.549954    3.478972   -0.281204
     17          6           0       -3.760248   -1.195767    0.366324
     18          6           0       -3.790691   -2.295865   -0.489783
     19          6           0       -2.624835   -2.684879   -1.146924
     20          6           0       -1.441266   -1.976749   -0.943893
     21          1           0        5.875577   -1.676685   -0.240856
     22          1           0        5.529716   -1.589555    1.496994
     23          1           0        5.915988   -0.111607    0.580848
     24          1           0        3.591418   -0.181936    0.821473
     25          1           0        3.693133   -2.770566   -0.532665
     26          1           0        3.194049   -2.581916    1.145857
     27          1           0        1.295608   -2.791366   -0.503541
     28          1           0        1.807442   -1.289576   -1.265791
     29          1           0        0.506306   -1.735613    1.440171
     30          1           0        1.571430   -0.354485    1.281395
     31          1           0       -3.482878    0.829902    2.010605
     32          1           0       -1.736882    0.645010    2.211951
     33          1           0       -3.038984    1.966945   -0.211767
     34          1           0       -2.545279    2.872891    1.204460
     35          1           0        2.108789    0.750821   -0.690126
     36          1           0        2.679967    3.055824   -1.199564
     37          1           0        0.952225    4.859693   -0.971991
     38          1           0       -1.299353    4.256324   -0.151646
     39          1           0       -4.666158   -0.880735    0.877571
     40          1           0       -4.717543   -2.838722   -0.646913
     41          1           0       -2.636016   -3.528090   -1.830821
     42          1           0       -0.546820   -2.255085   -1.486293
 ---------------------------------------------------------------------

 SCF Done:  E(RM062X) =  -808.591012033     A.U. after    1 cycles

      1  C    Isotropic =   146.4987   Anisotropy =    60.8769

      2  N    Isotropic =   218.0003   Anisotropy =    45.4250

      3  C    Isotropic =   132.6154   Anisotropy =    47.5356

      4  C    Isotropic =   147.6788   Anisotropy =    27.6386

      5  C    Isotropic =   127.2399   Anisotropy =    65.6676

      6  N    Isotropic =   168.1571   Anisotropy =    65.0470

      7  C    Isotropic =    12.1129   Anisotropy =   173.2609

      8  C    Isotropic =    19.0623   Anisotropy =   222.4277

      9  C    Isotropic =   150.0991   Anisotropy =    21.8527

     10  C    Isotropic =   146.1890   Anisotropy =    26.8702

     11  C    Isotropic =    35.5336   Anisotropy =   196.6418

     12  C    Isotropic =    13.8894   Anisotropy =   177.0577

     13  C    Isotropic =    46.3140   Anisotropy =   188.9455

     14  C    Isotropic =    37.1579   Anisotropy =   209.6383

     15  C    Isotropic =    46.1317   Anisotropy =   199.1089

     16  C    Isotropic =    31.1093   Anisotropy =   188.7009

     17  C    Isotropic =    36.3597   Anisotropy =   184.4713

     18  C    Isotropic =    38.4257   Anisotropy =   207.9915

     19  C    Isotropic =    37.5453   Anisotropy =   208.3423

     20  C    Isotropic =    37.5110   Anisotropy =   191.3282

     21  H    Isotropic =    29.4966   Anisotropy =     9.3565

     22  H    Isotropic =    29.5255   Anisotropy =     9.9565

     23  H    Isotropic =    29.0493   Anisotropy =    10.0552

     24  H    Isotropic =    31.2408   Anisotropy =    11.3338

     25  H    Isotropic =    29.2759   Anisotropy =     7.2794

     26  H    Isotropic =    29.2526   Anisotropy =     6.4263

     27  H    Isotropic =    29.4873   Anisotropy =     7.2662

     28  H    Isotropic =    29.0765   Anisotropy =     2.3336

     29  H    Isotropic =    28.5578   Anisotropy =     4.9206

     30  H    Isotropic =    28.3514   Anisotropy =     7.5003

     31  H    Isotropic =    29.1823   Anisotropy =     9.2536

     32  H    Isotropic =    28.3705   Anisotropy =     3.1378

     33  H    Isotropic =    28.9981   Anisotropy =     6.2261

     34  H    Isotropic =    28.7593   Anisotropy =     9.3102

     35  H    Isotropic =    23.3902   Anisotropy =     9.2671

     36  H    Isotropic =    23.9928   Anisotropy =     7.1775

     37  H    Isotropic =    24.4149   Anisotropy =     4.9849

     38  H    Isotropic =    24.1439   Anisotropy =     9.1850

     39  H    Isotropic =    24.0023   Anisotropy =     8.0218

     40  H    Isotropic =    24.0041   Anisotropy =     5.3515

     41  H    Isotropic =    23.9420   Anisotropy =     6.4991

     42  H    Isotropic =    23.6664   Anisotropy =    10.9737

 The electronic state is 1-A.
 Alpha  occ. eigenvalues --  -14.75865 -14.73529 -10.58077 -10.57693 -10.57259
 Alpha  occ. eigenvalues --  -10.56258 -10.55437 -10.54579 -10.54312 -10.54107
 Alpha  occ. eigenvalues --  -10.54057 -10.53984 -10.53946 -10.53929 -10.53799
 Alpha  occ. eigenvalues --  -10.53441 -10.53224 -10.53206 -10.52799 -10.52702
 Alpha  occ. eigenvalues --   -1.05878  -1.01359  -0.95884  -0.94561  -0.89829
 Alpha  occ. eigenvalues --   -0.87238  -0.84945  -0.84708  -0.81853  -0.80018
 Alpha  occ. eigenvalues --   -0.76646  -0.73630  -0.73282  -0.69040  -0.68023
 Alpha  occ. eigenvalues --   -0.67487  -0.65995  -0.64164  -0.59264  -0.58061
 Alpha  occ. eigenvalues --   -0.56470  -0.55040  -0.54216  -0.53977  -0.53587
 Alpha  occ. eigenvalues --   -0.52316  -0.51507  -0.49887  -0.49725  -0.49241
 Alpha  occ. eigenvalues --   -0.47898  -0.47528  -0.46519  -0.45978  -0.45383
 Alpha  occ. eigenvalues --   -0.44712  -0.44217  -0.43037  -0.42166  -0.41887
 Alpha  occ. eigenvalues --   -0.41550  -0.40739  -0.39530  -0.39212  -0.38872
 Alpha  occ. eigenvalues --   -0.38348  -0.34291  -0.30335  -0.29657  -0.29450
 Alpha  occ. eigenvalues --   -0.29015  -0.24399
 Alpha virt. eigenvalues --    0.01584   0.02322   0.02932   0.03956   0.06306
 Alpha virt. eigenvalues --    0.07358   0.07608   0.08502   0.09136   0.09518
 Alpha virt. eigenvalues --    0.10484   0.11212   0.11385   0.11930   0.12706

 Mulliken charges:
               1
     1  C   -0.334545
     2  N   -0.373081
     3  C   -0.198079
     4  C   -0.290403
     5  C   -0.365134
     6  N   -0.169045
     7  C    0.066121
     8  C    0.084063
     9  C   -0.393572
    10  C   -0.311888
    11  C    0.062343
    12  C    0.181316
    13  C   -0.241281
    14  C   -0.197083
    15  C   -0.166446
    16  C   -0.187767
    17  C   -0.144489
    18  C   -0.151842
    19  C   -0.161975
    20  C   -0.191433
    21  H    0.143359
    22  H    0.126758
    23  H    0.142336
    24  H    0.217803
    25  H    0.143491
    26  H    0.136727
    27  H    0.146732
    28  H    0.189898
    29  H    0.179270
    30  H    0.188648
    31  H    0.151094
    32  H    0.176551
    33  H    0.171646
    34  H    0.148807
    35  H    0.198864
    36  H    0.140114
    37  H    0.136652
    38  H    0.134846
    39  H    0.137294
    40  H    0.140882
    41  H    0.141095
    42  H    0.191352
 Sum of Mulliken charges =  -0.00000

 Dipole moment (field-independent basis, Debye):
    X=              0.1949    Y=             -1.0544    Z=              1.3086  Tot=              1.6918
 Quadrupole moment (field-independent basis, Debye-Ang):
   XX=           -110.9492   YY=           -116.2781   ZZ=           -123.3428
   XY=             -2.8979   XZ=              0.3372   YZ=              3.2042

 1\1\GINC-NOTCH170\SP\RM062X\def2TZVP\C18H22N2\U6032257\23-Sep-2022\0\\
 # M062X/def2tzvp int=(grid=ultrafine) nmr=giao guess=read geom=check\\
 SecN5.xyz\\0,1\C,0,-1.9223024694,-3.388447021,4.1657931919\N,0,-1.2251
 264132,-2.6799928652,3.0995229972\C,0,0.2190363715,-2.610112841,3.3122
 400186\C,0,0.9144094727,-1.7847083616,2.2280965232\C,0,0.9354034501,-2
 .4910535776,0.8522103632\N,0,0.9837247049,-1.6506943978,-0.344456341\C
 ,0,2.2610750748,-1.1663631177,-0.7434549539\C,0,2.7691188707,-1.486054
 0666,-2.0137137541\C,0,1.8829044169,-2.2106750512,-2.9831699156\C,0,0.

 Normal termination of Gaussian 16 at Fri Sep 23 16:33:27 2022.
