 Gaussian 16, Revision C.01,

 ----------------------------------------------------------------------
 # B3LYP/6-31G(d,p) empiricaldispersion=GD3BJ int=(grid=ultrafine) opt
 freq=noraman
 ----------------------------------------------------------------------

 ---------
 SecN5.xyz
 ---------
 Symbolic Z-matrix:
 Charge =  0 Multiplicity = 1

 SCF Done:  E(RB3LYP) =  -808.769473374     A.U. after   14 cycles
 SCF Done:  E(RB3LYP) =  -808.775668854     A.U. after   12 cycles
 SCF Done:  E(RB3LYP) =  -808.776705113     A.U. after   11 cycles
 SCF Done:  E(RB3LYP) =  -808.777331365     A.U. after   11 cycles
 SCF Done:  E(RB3LYP) =  -808.778042414     A.U. after   12 cycles
 SCF Done:  E(RB3LYP) =  -808.778290476     A.U. after   12 cycles
 SCF Done:  E(RB3LYP) =  -808.778621225     A.U. after   12 cycles
 SCF Done:  E(RB3LYP) =  -808.778410203     A.U. after   12 cycles
 SCF Done:  E(RB3LYP) =  -808.779168225     A.U. after   12 cycles
 SCF Done:  E(RB3LYP) =  -808.779349039     A.U. after   11 cycles
 SCF Done:  E(RB3LYP) =  -808.779251896     A.U. after   12 cycles
 SCF Done:  E(RB3LYP) =  -808.779436246     A.U. after   11 cycles
 SCF Done:  E(RB3LYP) =  -808.779435936     A.U. after   11 cycles
 SCF Done:  E(RB3LYP) =  -808.779451492     A.U. after   10 cycles
 SCF Done:  E(RB3LYP) =  -808.779452147     A.U. after    8 cycles
 SCF Done:  E(RB3LYP) =  -808.779451986     A.U. after    8 cycles
 SCF Done:  E(RB3LYP) =  -808.779452267     A.U. after    8 cycles
 Optimization completed.
    -- Stationary point found.
 Normal termination of Gaussian 16 at Fri Sep 23 16:18:24 2022.

 ----------------------------------------------------------------------
 #N Geom=AllCheck Guess=TCheck SCRF=Check GenChk RB3LYP/6-31G(d,p) Freq
 ----------------------------------------------------------------------

 Structure from the checkpoint file:  "SecN5_clust-11.chk"
 ---------
 SecN5.xyz
 ---------
 Charge =  0 Multiplicity = 1

 SCF Done:  E(RB3LYP) =  -808.779452267     A.U. after    1 cycles

                      1                      2                      3
                      A                      A                      A
 Frequencies --     23.7483                36.8489                50.6571
 Red. masses --      3.6515                 4.0035                 4.1339
 Frc consts  --      0.0012                 0.0032                 0.0063
 IR Inten    --      0.0250                 0.5931                 0.3950

                      4                      5                      6
                      A                      A                      A
 Frequencies --     68.5970                88.8421               101.0167
 Red. masses --      2.6172                 3.4944                 2.3920
 Frc consts  --      0.0073                 0.0163                 0.0144
 IR Inten    --      1.1048                 0.9481                 0.8410

                      7                      8                      9
                      A                      A                      A
 Frequencies --    135.3976               141.0377               164.1938
 Red. masses --      3.2094                 3.8061                 3.0998
 Frc consts  --      0.0347                 0.0446                 0.0492
 IR Inten    --      1.2632                 0.5992                 0.4065

                     10                     11                     12
                      A                      A                      A
 Frequencies --    232.7323               253.6476               266.8123
 Red. masses --      1.8586                 2.8827                 3.0799
 Frc consts  --      0.0593                 0.1093                 0.1292
 IR Inten    --      0.6194                 0.7519                 1.3066

                     13                     14                     15
                      A                      A                      A
 Frequencies --    269.8464               283.3969               308.6508
 Red. masses --      1.5023                 2.2541                 3.4431
 Frc consts  --      0.0645                 0.1067                 0.1933
 IR Inten    --      2.0929                 0.4626                 0.8767

                     16                     17                     18
                      A                      A                      A
 Frequencies --    326.3640               345.3104               372.4932
 Red. masses --      3.8084                 2.9577                 3.5962
 Frc consts  --      0.2390                 0.2078                 0.2940
 IR Inten    --      1.3452                 1.3770                 1.1475

                     19                     20                     21
                      A                      A                      A
 Frequencies --    418.9042               450.9961               467.3550
 Red. masses --      4.6623                 2.8943                 3.9666
 Frc consts  --      0.4820                 0.3469                 0.5105
 IR Inten    --      5.1848                 4.4935                 0.5094

                     22                     23                     24
                      A                      A                      A
 Frequencies --    484.6997               498.9111               541.6607
 Red. masses --      3.0494                 3.6273                 3.3171
 Frc consts  --      0.4221                 0.5320                 0.5734
 IR Inten    --      1.0860                 5.6975                 2.2228

                     25                     26                     27
                      A                      A                      A
 Frequencies --    555.9502               577.5186               605.2975
 Red. masses --      3.8170                 4.7856                 3.0802
 Frc consts  --      0.6951                 0.9404                 0.6649
 IR Inten    --      0.2009                 0.9494                 4.0484

                     28                     29                     30
                      A                      A                      A
 Frequencies --    618.9667               644.4434               705.9606
 Red. masses --      4.3341                 4.5715                 4.4460
 Frc consts  --      0.9783                 1.1186                 1.3055
 IR Inten    --      6.2092                 5.6067                 0.3071

                     31                     32                     33
                      A                      A                      A
 Frequencies --    728.5417               758.9241               762.3382
 Red. masses --      3.1395                 1.9788                 1.3495
 Frc consts  --      0.9818                 0.6715                 0.4621
 IR Inten    --      2.2490                26.8210                26.6986

                     34                     35                     36
                      A                      A                      A
 Frequencies --    768.4053               781.7313               787.0470
 Red. masses --      1.5556                 1.9599                 2.6212
 Frc consts  --      0.5412                 0.7057                 0.9566
 IR Inten    --     41.1478                27.2309                14.8423

                     37                     38                     39
                      A                      A                      A
 Frequencies --    811.5771               822.1048               866.8861
 Red. masses --      2.0719                 1.7553                 1.3610
 Frc consts  --      0.8040                 0.6990                 0.6026
 IR Inten    --     34.4445                11.1008                 2.3097

                     40                     41                     42
                      A                      A                      A
 Frequencies --    879.2621               883.8013               906.3872
 Red. masses --      1.5432                 2.3876                 1.8324
 Frc consts  --      0.7029                 1.0988                 0.8869
 IR Inten    --      0.9918                 1.1229                 0.1840

                     43                     44                     45
                      A                      A                      A
 Frequencies --    929.9579               941.2465               944.1912
 Red. masses --      1.8957                 1.4434                 1.3878
 Frc consts  --      0.9659                 0.7534                 0.7290
 IR Inten    --      8.7934                 2.7981                 3.3310

                     46                     47                     48
                      A                      A                      A
 Frequencies --    950.2965               973.5431               978.6511
 Red. masses --      2.1083                 1.2466                 1.2504
 Frc consts  --      1.1218                 0.6961                 0.7056
 IR Inten    --      4.0103                 0.1229                 0.0707

                     49                     50                     51
                      A                      A                      A
 Frequencies --    986.8836              1047.1001              1053.1686
 Red. masses --      2.1876                 2.2387                 2.4750
 Frc consts  --      1.2553                 1.4462                 1.6174
 IR Inten    --      0.8049                 4.1581                 0.8206

                     52                     53                     54
                      A                      A                      A
 Frequencies --   1070.3108              1073.7321              1081.8607
 Red. masses --      1.7541                 2.2022                 2.7764
 Frc consts  --      1.1839                 1.4959                 1.9146
 IR Inten    --     12.8909                 4.8408                 6.5108

                     55                     56                     57
                      A                      A                      A
 Frequencies --   1093.8102              1097.1014              1138.5625
 Red. masses --      2.4255                 2.1559                 1.9130
 Frc consts  --      1.7098                 1.5289                 1.4611
 IR Inten    --      6.4945                 1.9236                22.1853

                     58                     59                     60
                      A                      A                      A
 Frequencies --   1147.4051              1156.7480              1176.8141
 Red. masses --      1.9414                 1.9395                 2.0592
 Frc consts  --      1.5059                 1.5291                 1.6802
 IR Inten    --     18.9568                 8.9307                32.3313

                     61                     62                     63
                      A                      A                      A
 Frequencies --   1184.1131              1189.3652              1193.9669
 Red. masses --      1.5454                 1.1151                 1.2190
 Frc consts  --      1.2767                 0.9294                 1.0238
 IR Inten    --     16.9685                 0.6965                 0.8493

                     64                     65                     66
                      A                      A                      A
 Frequencies --   1197.1322              1210.2707              1234.7108
 Red. masses --      1.1504                 1.7696                 2.4370
 Frc consts  --      0.9713                 1.5272                 2.1890
 IR Inten    --      2.9562                 0.6767                 4.4547

                     67                     68                     69
                      A                      A                      A
 Frequencies --   1250.8584              1259.8491              1265.8950
 Red. masses --      1.5697                 1.8873                 1.8407
 Frc consts  --      1.4470                 1.7650                 1.7379
 IR Inten    --     23.9883                45.3526                76.3503

                     70                     71                     72
                      A                      A                      A
 Frequencies --   1281.3361              1295.7319              1326.2098
 Red. masses --      1.4466                 1.5273                 1.3275
 Frc consts  --      1.3994                 1.5108                 1.3756
 IR Inten    --     19.7245                21.4504                18.2664

                     73                     74                     75
                      A                      A                      A
 Frequencies --   1329.2247              1339.0863              1349.6857
 Red. masses --      1.6214                 2.1117                 1.9372
 Frc consts  --      1.6879                 2.2310                 2.0792
 IR Inten    --     10.8089                40.7558                 2.0743

                     76                     77                     78
                      A                      A                      A
 Frequencies --   1362.8917              1375.5194              1375.8157
 Red. masses --      3.3592                 2.0978                 1.5901
 Frc consts  --      3.6763                 2.3385                 1.7734
 IR Inten    --      3.2742                42.2533                10.2734

                     79                     80                     81
                      A                      A                      A
 Frequencies --   1395.8921              1400.0773              1426.4533
 Red. masses --      1.4759                 1.3774                 1.4843
 Frc consts  --      1.6944                 1.5907                 1.7794
 IR Inten    --      6.7904                23.7069                 4.5539

                     82                     83                     84
                      A                      A                      A
 Frequencies --   1471.6236              1485.9661              1487.4311
 Red. masses --      1.1800                 1.5370                 1.2122
 Frc consts  --      1.5056                 1.9996                 1.5802
 IR Inten    --      2.0482                13.8631                16.5322

                     85                     86                     87
                      A                      A                      A
 Frequencies --   1490.4038              1495.0122              1502.6978
 Red. masses --      1.2696                 1.4590                 2.0039
 Frc consts  --      1.6617                 1.9213                 2.6660
 IR Inten    --     14.3391                 7.7055                33.6781

                     88                     89                     90
                      A                      A                      A
 Frequencies --   1503.7991              1510.6481              1527.9811
 Red. masses --      1.0615                 1.0999                 1.1805
 Frc consts  --      1.4143                 1.4788                 1.6239
 IR Inten    --      8.0595                 2.8684                72.9992

                     91                     92                     93
                      A                      A                      A
 Frequencies --   1528.4997              1533.9576              1539.0942
 Red. masses --      1.3025                 1.0771                 1.5551
 Frc consts  --      1.7930                 1.4933                 2.1703
 IR Inten    --     55.0222                 1.3994                55.4084

                     94                     95                     96
                      A                      A                      A
 Frequencies --   1546.6008              1630.8674              1642.1177
 Red. masses --      2.6147                 6.0932                 6.6213
 Frc consts  --      3.6849                 9.5484                10.5197
 IR Inten    --     18.7620                14.8829                 7.8577

                     97                     98                     99
                      A                      A                      A
 Frequencies --   1656.1684              1663.3714              2929.1136
 Red. masses --      5.8797                 5.7812                 1.0732
 Frc consts  --      9.5020                 9.4242                 5.4252
 IR Inten    --     26.2261                11.6440                67.7451

                    100                    101                    102
                      A                      A                      A
 Frequencies --   2947.3261              2972.2176              3020.9046
 Red. masses --      1.0604                 1.0738                 1.0618
 Frc consts  --      5.4274                 5.5890                 5.7091
 IR Inten    --    145.3982                43.1404                28.1690

                    103                    104                    105
                      A                      A                      A
 Frequencies --   3029.0017              3043.9884              3045.8430
 Red. masses --      1.0818                 1.0698                 1.0724
 Frc consts  --      5.8479                 5.8402                 5.8616
 IR Inten    --      7.4506                 8.2788                51.9633

                    106                    107                    108
                      A                      A                      A
 Frequencies --   3059.7143              3066.6021              3095.5111
 Red. masses --      1.0903                 1.0743                 1.1045
 Frc consts  --      6.0139                 5.9526                 6.2355
 IR Inten    --     52.6077                40.2505                24.8727

                    109                    110                    111
                      A                      A                      A
 Frequencies --   3101.2497              3116.0818              3143.8700
 Red. masses --      1.0949                 1.1019                 1.0889
 Frc consts  --      6.2044                 6.3040                 6.3409
 IR Inten    --     15.5721                31.4696                13.4633

                    112                    113                    114
                      A                      A                      A
 Frequencies --   3164.5652              3172.5660              3183.6285
 Red. masses --      1.0877                 1.0869                 1.0879
 Frc consts  --      6.4177                 6.4458                 6.4964
 IR Inten    --     13.2509                 8.5416                10.4163

                    115                    116                    117
                      A                      A                      A
 Frequencies --   3184.4472              3199.5391              3204.0875
 Red. masses --      1.0881                 1.0927                 1.0956
 Frc consts  --      6.5009                 6.5908                 6.6268
 IR Inten    --     10.0129                30.3144                33.2283

                    118                    119                    120
                      A                      A                      A
 Frequencies --   3209.0021              3223.8304              3504.2621
 Red. masses --      1.0970                 1.0917                 1.0739
 Frc consts  --      6.6559                 6.6851                 7.7695
 IR Inten    --     17.5322                13.8721                 0.6470

 - Thermochemistry -
 -------------------
 Temperature   298.150 Kelvin.  Pressure   1.00000 Atm.
 Atom     1 has atomic number  6 and mass  12.00000

 Molecular mass:   266.17830 amu.
 Principal axes and moments of inertia in atomic units:
                           1         2         3
     Eigenvalues --  4900.057016544.203099827.78461
           X            0.99997  -0.00574   0.00568
           Y            0.00574   0.99998  -0.00054
           Z           -0.00568   0.00057   0.99998
 This molecule is an asymmetric top.
 Rotational symmetry number  1.
 Warning -- assumption of classical behavior for rotation
           may cause significant error
 Rotational temperatures (Kelvin)      0.01768     0.01324     0.00881
 Rotational constants (GHZ):           0.36831     0.27578     0.18364
 Zero-point vibrational energy     961297.1 (Joules/Mol)
                                  229.75552 (Kcal/Mol)
 Warning -- explicit consideration of  28 degrees of freedom as
           vibrations may cause significant error
 Vibrational temperatures:     34.17    53.02    72.88    98.70   127.82
          (Kelvin)            145.34   194.81   202.92   236.24   334.85
                              364.94   383.88   388.25   407.74   444.08
                              469.56   496.82   535.93   602.71   648.88
                              672.42   697.37   717.82   779.33   799.89
                              830.92   870.89   890.55   927.21  1015.72
                             1048.21  1091.92  1096.83  1105.56  1124.74
                             1132.39  1167.68  1182.83  1247.26  1265.06
                             1271.59  1304.09  1338.00  1354.24  1358.48
                             1367.26  1400.71  1408.06  1419.91  1506.54
                             1515.27  1539.94  1544.86  1556.56  1573.75
                             1578.48  1638.14  1650.86  1664.30  1693.17
                             1703.67  1711.23  1717.85  1722.41  1741.31
                             1776.47  1799.71  1812.64  1821.34  1843.56
                             1864.27  1908.12  1912.46  1926.65  1941.90
                             1960.90  1979.07  1979.49  2008.38  2014.40
                             2052.35  2117.34  2137.97  2140.08  2144.36
                             2150.99  2162.05  2163.63  2173.49  2198.42
                             2199.17  2207.02  2214.41  2225.21  2346.45
                             2362.64  2382.86  2393.22  4214.34  4240.54
                             4276.36  4346.41  4358.06  4379.62  4382.29
                             4402.25  4412.16  4453.75  4462.01  4483.35
                             4523.33  4553.10  4564.61  4580.53  4581.71
                             4603.42  4609.97  4617.04  4638.37  5041.85

 Zero-point correction=                           0.366139 (Hartree/Particle)
 Thermal correction to Energy=                    0.383835
 Thermal correction to Enthalpy=                  0.384779
 Thermal correction to Gibbs Free Energy=         0.319451
 Sum of electronic and zero-point Energies=           -808.413314
 Sum of electronic and thermal Energies=              -808.395618
 Sum of electronic and thermal Enthalpies=            -808.394674
 Sum of electronic and thermal Free Energies=         -808.460002

                     E (Thermal)             CV                S
                      KCal/Mol        Cal/Mol-Kelvin    Cal/Mol-Kelvin
 Total                  240.860             70.396            137.494
 Electronic               0.000              0.000              0.000
 Translational            0.889              2.981             42.636
 Rotational               0.889              2.981             34.110
 Vibrational            239.082             64.434             60.748
 Vibration     1          0.593              1.985              6.293
 Vibration     2          0.594              1.982              5.422
 Vibration     3          0.595              1.977              4.792
 Vibration     4          0.598              1.969              4.193
 Vibration     5          0.602              1.957              3.685
 Vibration     6          0.604              1.948              3.435
 Vibration     7          0.613              1.918              2.868
 Vibration     8          0.615              1.912              2.790
 Vibration     9          0.623              1.886              2.501
 Vibration    10          0.653              1.791              1.858
 Vibration    11          0.665              1.757              1.705
 Vibration    12          0.672              1.734              1.617
 Vibration    13          0.674              1.729              1.597
 Vibration    14          0.682              1.704              1.513
 Vibration    15          0.698              1.657              1.370
 Vibration    16          0.710              1.623              1.278
 Vibration    17          0.724              1.585              1.188
 Vibration    18          0.744              1.529              1.070
 Vibration    19          0.782              1.429              0.896
 Vibration    20          0.810              1.359              0.793
 Vibration    21          0.825              1.322              0.745
 Vibration    22          0.841              1.284              0.698
 Vibration    23          0.854              1.252              0.661
 Vibration    24          0.897              1.158              0.562
 Vibration    25          0.911              1.127              0.532
 Vibration    26          0.934              1.080              0.490
 Vibration    27          0.964              1.021              0.441
 Vibration    28          0.979              0.992              0.418

 Optimization completed.
    -- Stationary point found.
 Normal termination of Gaussian 16 at Fri Sep 23 16:20:49 2022.

 ----------------------------------------------------------------------
 # M062X/def2tzvp int=(grid=ultrafine) pop=nbo7 polar prop=efg volume g
 uess=read geom=check
 ----------------------------------------------------------------------

 ---------
 SecN5.xyz
 ---------
 Structure from the checkpoint file:  "SecN5_clust-11.chk"
 Charge =  0 Multiplicity = 1

 SCF Done:  E(RM062X) =  -808.595722859     A.U. after   11 cycles

  Exact polarizability:     226.958      -0.833     257.877      24.195      -0.832     178.459
 Approx polarizability:     269.576      -5.000     303.445      39.919      -3.487     254.135

 Summary of Natural Population Analysis:

                                     Natural Population
             Natural    ---------------------------------------------
  Atom No    Charge        Core      Valence    Rydberg      Total
 --------------------------------------------------------------------
    C  1   -0.40842      1.99999     4.39655    0.01188     6.40842
    N  2   -0.62739      1.99999     5.60159    0.02581     7.62739
    C  3   -0.21313      1.99999     4.19932    0.01382     6.21313
    C  4   -0.40994      1.99999     4.39827    0.01168     6.40994
    C  5   -0.20948      1.99999     4.19515    0.01434     6.20948
    N  6   -0.45719      1.99999     5.43115    0.02605     7.45719
    C  7    0.16609      1.99999     3.81584    0.01807     5.83391
    C  8   -0.03176      1.99999     4.01423    0.01753     6.03176
    C  9   -0.41384      1.99999     4.40201    0.01184     6.41384
    C 10   -0.40263      1.99999     4.39164    0.01099     6.40263
    C 11   -0.04917      1.99999     4.03289    0.01629     6.04917
    C 12    0.17241      1.99999     3.80998    0.01762     5.82759
    C 13   -0.25345      1.99999     4.23686    0.01660     6.25345
    C 14   -0.20508      1.99999     4.18846    0.01663     6.20508
    C 15   -0.23338      1.99999     4.21661    0.01678     6.23338
    C 16   -0.18912      1.99999     4.17321    0.01593     6.18912
    C 17   -0.20349      1.99999     4.18718    0.01633     6.20349
    C 18   -0.22066      1.99999     4.20422    0.01645     6.22066
    C 19   -0.20927      1.99999     4.19290    0.01638     6.20927
    C 20   -0.23198      1.99999     4.21618    0.01581     6.23198
    H 21    0.20090      0.00000     0.79801    0.00109     0.79910
    H 22    0.19029      0.00000     0.80818    0.00152     0.80971
    H 23    0.16197      0.00000     0.83526    0.00277     0.83803
    H 24    0.34771      0.00000     0.64968    0.00262     0.65229
    H 25    0.16721      0.00000     0.82980    0.00300     0.83279
    H 26    0.18261      0.00000     0.81514    0.00225     0.81739
    H 27    0.19988      0.00000     0.79825    0.00188     0.80012
    H 28    0.21830      0.00000     0.78032    0.00139     0.78170
    H 29    0.17082      0.00000     0.82634    0.00284     0.82918
    H 30    0.23111      0.00000     0.76689    0.00200     0.76889
    H 31    0.21252      0.00000     0.78598    0.00149     0.78748
    H 32    0.22037      0.00000     0.77757    0.00207     0.77963
    H 33    0.21341      0.00000     0.78464    0.00194     0.78659
    H 34    0.21473      0.00000     0.78365    0.00162     0.78527
    H 35    0.21132      0.00000     0.78691    0.00177     0.78868
    H 36    0.21240      0.00000     0.78641    0.00119     0.78760
    H 37    0.21390      0.00000     0.78495    0.00115     0.78610
    H 38    0.20668      0.00000     0.79198    0.00134     0.79332
    H 39    0.20972      0.00000     0.78888    0.00140     0.79028
    H 40    0.21386      0.00000     0.78500    0.00114     0.78614
    H 41    0.21406      0.00000     0.78476    0.00118     0.78594
    H 42    0.21714      0.00000     0.78140    0.00146     0.78286
 ====================================================================
 * Total *  0.00000     39.99984   103.63421    0.36594   144.00000

 1\1\GINC-NOTCH364\SP\RM062X\def2TZVP\C18H22N2\U6032257\23-Sep-2022\0\\
 # M062X/def2tzvp int=(grid=ultrafine) pop=nbo7 polar prop=efg volume g
 uess=read geom=check\\SecN5.xyz\\0,1\C,0,0.1401715085,-3.6832980205,4.
 9159982765\N,0,0.3173819737,-3.40697121,3.4970620344\C,0,-0.9171576448
 ,-2.9956842828,2.8348760424\C,0,-0.6857069268,-2.7181266816,1.35069117
 41\C,0,0.3562295933,-1.6191496796,1.1248057926\N,0,0.6112242741,-1.380
 2341579,-0.2961199359\C,0,1.9599046671,-1.0887531498,-0.6525048243\C,0
 ,2.5094514666,-1.7070348634,-1.7866918171\C,0,1.630474726,-2.610585221

 Normal termination of Gaussian 16 at Fri Sep 23 16:29:02 2022.
 Gaussian 16:  ES64L-G16RevC.01  3-Jul-2019

 --------------------------------------------------------------------
 # M062X/def2tzvp int=(grid=ultrafine) nmr=giao guess=read geom=check
 --------------------------------------------------------------------

 ---------
 SecN5.xyz
 ---------
 Structure from the checkpoint file:  "SecN5_clust-11.chk"
 Charge =  0 Multiplicity = 1

                         Standard orientation:
 ---------------------------------------------------------------------
 Center     Atomic      Atomic             Coordinates (Angstroms)
 Number     Number       Type             X           Y           Z
 ---------------------------------------------------------------------
      1          6           0        5.693724    0.524418   -0.247374
      2          7           0        4.257074    0.466878   -0.479464
      3          6           0        3.712635   -0.883438   -0.370063
      4          6           0        2.206055   -0.897168   -0.621938
      5          6           0        1.447960   -0.004503    0.364391
      6          7           0        0.009077    0.017721    0.099337
      7          6           0       -0.647005    1.267596    0.294991
      8          6           0       -1.578878    1.700375   -0.661549
      9          6           0       -1.877337    0.798703   -1.823625
     10          6           0       -2.662716   -0.440844   -1.379701
     11          6           0       -1.965844   -1.407284   -0.433965
     12          6           0       -0.738077   -1.185834    0.235055
     13          6           0       -0.228649   -2.211246    1.055375
     14          6           0       -0.891659   -3.421048    1.222121
     15          6           0       -2.106307   -3.638489    0.576854
     16          6           0       -2.618671   -2.630839   -0.232287
     17          6           0       -2.208933    2.933947   -0.485360
     18          6           0       -1.904931    3.748752    0.605185
     19          6           0       -0.962561    3.322573    1.540547
     20          6           0       -0.340444    2.084266    1.389553
     21          1           0        6.053033    1.545223   -0.406310
     22          1           0        5.903775    0.256500    0.794191
     23          1           0        6.285731   -0.154433   -0.888400
     24          1           0        4.051873    0.826143   -1.409467
     25          1           0        4.206243   -1.601716   -1.052162
     26          1           0        3.917402   -1.241013    0.648827
     27          1           0        1.991087   -0.548504   -1.640594
     28          1           0        1.842905   -1.927595   -0.566329
     29          1           0        1.692162   -0.300047    1.397808
     30          1           0        1.812084    1.016383    0.253221
     31          1           0       -2.462709    1.337440   -2.575552
     32          1           0       -0.938463    0.485497   -2.294467
     33          1           0       -3.594377   -0.099488   -0.908743
     34          1           0       -2.966485   -1.007798   -2.268406
     35          1           0        0.702075   -2.052055    1.584830
     36          1           0       -0.460683   -4.183416    1.864225
     37          1           0       -2.641455   -4.575259    0.694103
     38          1           0       -3.560835   -2.793534   -0.750693
     39          1           0       -2.932303    3.265496   -1.225810
     40          1           0       -2.395575    4.710221    0.720194
     41          1           0       -0.718126    3.946522    2.394882
     42          1           0        0.379419    1.743617    2.126267
 ---------------------------------------------------------------------

 SCF Done:  E(RM062X) =  -808.595722859     A.U. after    1 cycles

      1  C    Isotropic =   146.8343   Anisotropy =    60.9981

      2  N    Isotropic =   216.7862   Anisotropy =    67.8619

      3  C    Isotropic =   132.3696   Anisotropy =    45.2888

      4  C    Isotropic =   153.0983   Anisotropy =    24.2935

      5  C    Isotropic =   131.1401   Anisotropy =    50.4817

      6  N    Isotropic =   167.1135   Anisotropy =    82.2130

      7  C    Isotropic =     7.1958   Anisotropy =   175.9878

      8  C    Isotropic =    22.2975   Anisotropy =   218.7941

      9  C    Isotropic =   151.0873   Anisotropy =    24.5933

     10  C    Isotropic =   147.8947   Anisotropy =    24.8431

     11  C    Isotropic =    32.3959   Anisotropy =   202.2821

     12  C    Isotropic =    17.6122   Anisotropy =   180.2762

     13  C    Isotropic =    47.0496   Anisotropy =   203.9062

     14  C    Isotropic =    38.6504   Anisotropy =   206.8759

     15  C    Isotropic =    44.2774   Anisotropy =   198.1185

     16  C    Isotropic =    30.3112   Anisotropy =   192.6543

     17  C    Isotropic =    36.5242   Anisotropy =   185.0470

     18  C    Isotropic =    40.2002   Anisotropy =   204.7694

     19  C    Isotropic =    37.0491   Anisotropy =   209.4974

     20  C    Isotropic =    41.8669   Anisotropy =   198.4966

     21  H    Isotropic =    29.2268   Anisotropy =    10.2043

     22  H    Isotropic =    29.6301   Anisotropy =     8.9086

     23  H    Isotropic =    29.5441   Anisotropy =    10.1947

     24  H    Isotropic =    32.5806   Anisotropy =    10.4666

     25  H    Isotropic =    29.1323   Anisotropy =     7.5931

     26  H    Isotropic =    29.5006   Anisotropy =     5.1350

     27  H    Isotropic =    30.6059   Anisotropy =     5.7225

     28  H    Isotropic =    29.6223   Anisotropy =     7.6854

     29  H    Isotropic =    27.8318   Anisotropy =     5.8550

     30  H    Isotropic =    27.9215   Anisotropy =     8.8853

     31  H    Isotropic =    29.2463   Anisotropy =     9.2409

     32  H    Isotropic =    28.0232   Anisotropy =     4.0406

     33  H    Isotropic =    28.9192   Anisotropy =     7.0427

     34  H    Isotropic =    28.6036   Anisotropy =     8.9196

     35  H    Isotropic =    24.1026   Anisotropy =    11.5240

     36  H    Isotropic =    24.0875   Anisotropy =     6.2500

     37  H    Isotropic =    24.3442   Anisotropy =     4.8950

     38  H    Isotropic =    24.0536   Anisotropy =     9.4546

     39  H    Isotropic =    23.9705   Anisotropy =     8.0647

     40  H    Isotropic =    24.1062   Anisotropy =     5.2547

     41  H    Isotropic =    23.9529   Anisotropy =     6.1502

     42  H    Isotropic =    23.9942   Anisotropy =    11.0690

 The electronic state is 1-A.
 Alpha  occ. eigenvalues --  -14.75705 -14.73307 -10.58025 -10.57305 -10.56171
 Alpha  occ. eigenvalues --  -10.56023 -10.55329 -10.54515 -10.54170 -10.53931
 Alpha  occ. eigenvalues --  -10.53799 -10.53752 -10.53680 -10.53555 -10.53543
 Alpha  occ. eigenvalues --  -10.53530 -10.53384 -10.53309 -10.53232 -10.53033
 Alpha  occ. eigenvalues --   -1.05748  -1.01214  -0.95676  -0.94581  -0.89698
 Alpha  occ. eigenvalues --   -0.87136  -0.84910  -0.84431  -0.81722  -0.79900
 Alpha  occ. eigenvalues --   -0.76508  -0.73562  -0.72754  -0.69020  -0.68307
 Alpha  occ. eigenvalues --   -0.66709  -0.65543  -0.64108  -0.58871  -0.58208
 Alpha  occ. eigenvalues --   -0.55609  -0.55004  -0.54615  -0.53639  -0.53513
 Alpha  occ. eigenvalues --   -0.52313  -0.50617  -0.50463  -0.49870  -0.49363
 Alpha  occ. eigenvalues --   -0.47909  -0.47402  -0.46818  -0.45566  -0.45008
 Alpha  occ. eigenvalues --   -0.44323  -0.43478  -0.42804  -0.42282  -0.41267
 Alpha  occ. eigenvalues --   -0.40822  -0.40289  -0.39789  -0.39330  -0.39085
 Alpha  occ. eigenvalues --   -0.38299  -0.34638  -0.30020  -0.29493  -0.29315
 Alpha  occ. eigenvalues --   -0.28779  -0.24686
 Alpha virt. eigenvalues --    0.01759   0.02847   0.03030   0.03637   0.06119
 Alpha virt. eigenvalues --    0.07212   0.07754   0.08650   0.09096   0.09755
 Alpha virt. eigenvalues --    0.10138   0.11188   0.11594   0.12727   0.13013

 Mulliken charges:
               1
     1  C   -0.329583
     2  N   -0.366940
     3  C   -0.178514
     4  C   -0.329417
     5  C   -0.355563
     6  N   -0.138236
     7  C    0.100700
     8  C    0.072522
     9  C   -0.397591
    10  C   -0.320117
    11  C    0.046921
    12  C    0.162509
    13  C   -0.225039
    14  C   -0.148676
    15  C   -0.168005
    16  C   -0.180601
    17  C   -0.142730
    18  C   -0.157109
    19  C   -0.142764
    20  C   -0.204223
    21  H    0.141366
    22  H    0.141624
    23  H    0.123752
    24  H    0.212924
    25  H    0.131479
    26  H    0.144408
    27  H    0.156633
    28  H    0.179035
    29  H    0.170400
    30  H    0.198046
    31  H    0.149001
    32  H    0.173453
    33  H    0.169399
    34  H    0.153520
    35  H    0.160250
    36  H    0.139153
    37  H    0.138050
    38  H    0.138734
    39  H    0.135444
    40  H    0.139499
    41  H    0.141029
    42  H    0.165253
 Sum of Mulliken charges =  -0.00000

 Dipole moment (field-independent basis, Debye):
    X=              1.1846    Y=             -0.0916    Z=             -1.0091  Tot=              1.5588
 Quadrupole moment (field-independent basis, Debye-Ang):
   XX=           -112.3337   YY=           -118.6705   ZZ=           -117.5877
   XY=             -2.1487   XZ=              3.4295   YZ=             -1.2939

 1\1\GINC-NOTCH364\SP\RM062X\def2TZVP\C18H22N2\U6032257\23-Sep-2022\0\\
 # M062X/def2tzvp int=(grid=ultrafine) nmr=giao guess=read geom=check\\
 SecN5.xyz\\0,1\C,0,0.1401715085,-3.6832980205,4.9159982765\N,0,0.31738
 19737,-3.40697121,3.4970620344\C,0,-0.9171576448,-2.9956842828,2.83487
 60424\C,0,-0.6857069268,-2.7181266816,1.3506911741\C,0,0.3562295933,-1
 .6191496796,1.1248057926\N,0,0.6112242741,-1.3802341579,-0.2961199359\
 C,0,1.9599046671,-1.0887531498,-0.6525048243\C,0,2.5094514666,-1.70703
 48634,-1.7866918171\C,0,1.630474726,-2.6105852214,-2.6012518765\C,0,0.

 Normal termination of Gaussian 16 at Fri Sep 23 16:32:25 2022.
