 Gaussian 16, Revision C.01,

 ----------------------------------------------------------------------
 # B3LYP/6-31G(d,p) empiricaldispersion=GD3BJ int=(grid=ultrafine) opt
 freq=noraman
 ----------------------------------------------------------------------

 ---------
 SecN5.xyz
 ---------
 Symbolic Z-matrix:
 Charge =  0 Multiplicity = 1

 SCF Done:  E(RB3LYP) =  -808.764001101     A.U. after   14 cycles
 SCF Done:  E(RB3LYP) =  -808.770619391     A.U. after   12 cycles
 SCF Done:  E(RB3LYP) =  -808.771674103     A.U. after   11 cycles
 SCF Done:  E(RB3LYP) =  -808.771904429     A.U. after   12 cycles
 SCF Done:  E(RB3LYP) =  -808.772071159     A.U. after   11 cycles
 SCF Done:  E(RB3LYP) =  -808.772168714     A.U. after   11 cycles
 SCF Done:  E(RB3LYP) =  -808.772222431     A.U. after   10 cycles
 SCF Done:  E(RB3LYP) =  -808.772252140     A.U. after   10 cycles
 SCF Done:  E(RB3LYP) =  -808.772267256     A.U. after   10 cycles
 SCF Done:  E(RB3LYP) =  -808.772270884     A.U. after    9 cycles
 SCF Done:  E(RB3LYP) =  -808.772271814     A.U. after    8 cycles
 SCF Done:  E(RB3LYP) =  -808.772271874     A.U. after    6 cycles
 SCF Done:  E(RB3LYP) =  -808.772271858     A.U. after    6 cycles
 Optimization completed.
    -- Stationary point found.
 Normal termination of Gaussian 16 at Fri Sep 23 16:18:25 2022.

 ----------------------------------------------------------------------
 #N Geom=AllCheck Guess=TCheck SCRF=Check GenChk RB3LYP/6-31G(d,p) Freq
 ----------------------------------------------------------------------

 Structure from the checkpoint file:  "SecN5_clust-2.chk"
 ---------
 SecN5.xyz
 ---------
 Charge =  0 Multiplicity = 1

 SCF Done:  E(RB3LYP) =  -808.772271858     A.U. after    1 cycles

                      1                      2                      3
                      A                      A                      A
 Frequencies --     21.1103                38.2373                42.1682
 Red. masses --      4.3265                 3.8518                 3.0866
 Frc consts  --      0.0011                 0.0033                 0.0032
 IR Inten    --      0.0192                 0.2893                 0.2518

                      4                      5                      6
                      A                      A                      A
 Frequencies --     66.2514                88.0691                99.3652
 Red. masses --      3.6144                 3.6668                 3.0995
 Frc consts  --      0.0093                 0.0168                 0.0180
 IR Inten    --      0.2427                 0.2388                 1.7381

                      7                      8                      9
                      A                      A                      A
 Frequencies --    134.3098               146.5495               173.9186
 Red. masses --      3.4232                 2.2746                 3.3944
 Frc consts  --      0.0364                 0.0288                 0.0605
 IR Inten    --      0.8125                 0.8361                 0.9142

                     10                     11                     12
                      A                      A                      A
 Frequencies --    199.0177               229.3375               269.0774
 Red. masses --      1.8211                 1.8720                 1.9801
 Frc consts  --      0.0425                 0.0580                 0.0845
 IR Inten    --      0.0999                 0.7670                 0.8328

                     13                     14                     15
                      A                      A                      A
 Frequencies --    284.7234               311.4915               313.0424
 Red. masses --      2.8291                 2.9948                 3.2322
 Frc consts  --      0.1351                 0.1712                 0.1866
 IR Inten    --      3.5630                 3.8078                 1.2501

                     16                     17                     18
                      A                      A                      A
 Frequencies --    338.1685               355.8915               376.2039
 Red. masses --      3.7537                 3.4017                 3.5061
 Frc consts  --      0.2529                 0.2538                 0.2924
 IR Inten    --      0.9660                 0.8763                 2.0130

                     19                     20                     21
                      A                      A                      A
 Frequencies --    391.5201               448.3926               476.1024
 Red. masses --      2.6007                 2.8393                 3.2499
 Frc consts  --      0.2349                 0.3363                 0.4340
 IR Inten    --      1.7094                 1.1314                 0.6890

                     22                     23                     24
                      A                      A                      A
 Frequencies --    483.0420               507.9747               537.3678
 Red. masses --      3.7023                 3.2292                 3.3557
 Frc consts  --      0.5090                 0.4909                 0.5709
 IR Inten    --      4.9205                12.6754                13.7219

                     25                     26                     27
                      A                      A                      A
 Frequencies --    562.4247               581.2128               600.6635
 Red. masses --      3.6999                 3.8011                 3.2903
 Frc consts  --      0.6895                 0.7565                 0.6994
 IR Inten    --      1.9864                10.3313                 1.6546

                     28                     29                     30
                      A                      A                      A
 Frequencies --    612.4053               642.5965               701.8850
 Red. masses --      3.7480                 5.5591                 4.9828
 Frc consts  --      0.8282                 1.3525                 1.4463
 IR Inten    --     11.1275                 5.9151                 0.2835

                     31                     32                     33
                      A                      A                      A
 Frequencies --    737.1520               761.1572               768.5012
 Red. masses --      2.6854                 2.6057                 1.5074
 Frc consts  --      0.8598                 0.8895                 0.5245
 IR Inten    --      5.0994                 5.8703                28.1293

                     34                     35                     36
                      A                      A                      A
 Frequencies --    778.1209               784.4562               788.5004
 Red. masses --      1.7095                 1.4400                 2.2556
 Frc consts  --      0.6099                 0.5221                 0.8263
 IR Inten    --      5.8450                73.5707                 5.0978

                     37                     38                     39
                      A                      A                      A
 Frequencies --    792.9040               814.4123               854.9187
 Red. masses --      2.2305                 1.9528                 1.9867
 Frc consts  --      0.8262                 0.7631                 0.8555
 IR Inten    --     34.9657                10.7629                 3.8405

                     40                     41                     42
                      A                      A                      A
 Frequencies --    877.8655               888.5302               903.5071
 Red. masses --      1.3779                 1.4419                 2.3606
 Frc consts  --      0.6257                 0.6707                 1.1354
 IR Inten    --      1.2527                 0.6306                 3.1727

                     43                     44                     45
                      A                      A                      A
 Frequencies --    939.0089               949.6870               954.8890
 Red. masses --      2.3169                 1.6760                 1.4841
 Frc consts  --      1.2036                 0.8906                 0.7973
 IR Inten    --      3.0186                 0.6078                 0.6426

                     46                     47                     48
                      A                      A                      A
 Frequencies --    968.0560               982.0310               984.5344
 Red. masses --      2.0441                 1.8446                 1.3362
 Frc consts  --      1.1286                 1.0481                 0.7631
 IR Inten    --      1.6694                 0.4712                 0.1450

                     49                     50                     51
                      A                      A                      A
 Frequencies --    986.2569               989.3594              1052.3477
 Red. masses --      1.3399                 2.0571                 2.5644
 Frc consts  --      0.7679                 1.1863                 1.6733
 IR Inten    --      0.0789                 0.5425                 1.4902

                     52                     53                     54
                      A                      A                      A
 Frequencies --   1067.0742              1070.2146              1079.4667
 Red. masses --      2.1871                 1.9288                 2.6672
 Frc consts  --      1.4673                 1.3016                 1.8312
 IR Inten    --      5.0431                 5.4524                12.2120

                     55                     56                     57
                      A                      A                      A
 Frequencies --   1087.6150              1098.1449              1133.0370
 Red. masses --      2.2891                 1.9770                 1.7947
 Frc consts  --      1.5954                 1.4047                 1.3575
 IR Inten    --     17.5629                 6.1038                 4.6880

                     58                     59                     60
                      A                      A                      A
 Frequencies --   1140.8855              1151.0989              1173.5896
 Red. masses --      1.9767                 1.5150                 2.6981
 Frc consts  --      1.5159                 1.1827                 2.1895
 IR Inten    --     18.3175                 3.9881                25.9781

                     61                     62                     63
                      A                      A                      A
 Frequencies --   1183.9550              1187.3110              1188.7174
 Red. masses --      1.1619                 1.4961                 1.0993
 Frc consts  --      0.9596                 1.2426                 0.9152
 IR Inten    --      2.8529                12.6863                 1.4604

                     64                     65                     66
                      A                      A                      A
 Frequencies --   1193.7955              1205.9650              1227.1141
 Red. masses --      1.1931                 2.0900                 2.5925
 Frc consts  --      1.0018                 1.7909                 2.3000
 IR Inten    --      4.4940                 0.4294                21.0509

                     67                     68                     69
                      A                      A                      A
 Frequencies --   1243.7312              1255.2768              1263.6513
 Red. masses --      1.9168                 1.4355                 1.8035
 Frc consts  --      1.7469                 1.3327                 1.6968
 IR Inten    --     23.5404                15.8882                24.7979

                     70                     71                     72
                      A                      A                      A
 Frequencies --   1273.2870              1293.2044              1313.1974
 Red. masses --      1.4820                 1.4515                 1.5511
 Frc consts  --      1.4157                 1.4303                 1.5760
 IR Inten    --     13.4472                 0.9781                 1.7943

                     73                     74                     75
                      A                      A                      A
 Frequencies --   1334.3251              1337.9540              1345.7033
 Red. masses --      1.3796                 3.3280                 1.9459
 Frc consts  --      1.4472                 3.5101                 2.0762
 IR Inten    --      5.0555                 0.6245                28.6486

                     76                     77                     78
                      A                      A                      A
 Frequencies --   1356.0225              1372.7642              1375.0305
 Red. masses --      3.0681                 1.3754                 1.6159
 Frc consts  --      3.3239                 1.5271                 1.8000
 IR Inten    --      6.6452                15.8722                 3.0851

                     79                     80                     81
                      A                      A                      A
 Frequencies --   1397.1545              1413.1417              1423.4115
 Red. masses --      1.4880                 1.4057                 1.4517
 Frc consts  --      1.7114                 1.6539                 1.7329
 IR Inten    --      8.7496                19.0291                11.0473

                     82                     83                     84
                      A                      A                      A
 Frequencies --   1469.0862              1486.0363              1488.3169
 Red. masses --      1.1800                 1.3596                 1.4765
 Frc consts  --      1.5005                 1.7689                 1.9269
 IR Inten    --      0.2661                 5.3976                 6.2843

                     85                     86                     87
                      A                      A                      A
 Frequencies --   1493.2948              1496.0729              1499.7310
 Red. masses --      1.3059                 1.9747                 1.1328
 Frc consts  --      1.7157                 2.6042                 1.5011
 IR Inten    --      8.5582                 7.4586                 3.8549

                     88                     89                     90
                      A                      A                      A
 Frequencies --   1504.2204              1506.4566              1510.0836
 Red. masses --      1.0495                 1.1939                 1.1585
 Frc consts  --      1.3991                 1.5963                 1.5565
 IR Inten    --      4.3969                 8.2016                 2.5540

                     91                     92                     93
                      A                      A                      A
 Frequencies --   1522.7015              1531.8535              1534.6813
 Red. masses --      1.1133                 1.2125                 1.9645
 Frc consts  --      1.5208                 1.6763                 2.7261
 IR Inten    --      6.5113                50.2793                61.8672

                     94                     95                     96
                      A                      A                      A
 Frequencies --   1536.2786              1625.5354              1636.3100
 Red. masses --      2.5820                 6.0649                 6.2804
 Frc consts  --      3.5905                 9.4421                 9.9077
 IR Inten    --     14.1308                 6.3131                 2.3175

                     97                     98                     99
                      A                      A                      A
 Frequencies --   1656.1652              1663.4851              2934.8941
 Red. masses --      6.0122                 6.0520                 1.0619
 Frc consts  --      9.7161                 9.8670                 5.3890
 IR Inten    --      5.2147                 2.5751                71.2012

                    100                    101                    102
                      A                      A                      A
 Frequencies --   2952.6591              2981.7077              3021.6486
 Red. masses --      1.0697                 1.0703                 1.0636
 Frc consts  --      5.4946                 5.6064                 5.7215
 IR Inten    --     93.8086                49.9681                22.2829

                    103                    104                    105
                      A                      A                      A
 Frequencies --   3051.8032              3054.4419              3057.9743
 Red. masses --      1.0719                 1.0898                 1.0625
 Frc consts  --      5.8821                 5.9907                 5.8541
 IR Inten    --     11.9583                26.0030                23.0464

                    106                    107                    108
                      A                      A                      A
 Frequencies --   3065.4835              3075.7232              3079.2499
 Red. masses --      1.0863                 1.0724                 1.0931
 Frc consts  --      6.0146                 5.9771                 6.1065
 IR Inten    --     52.3799                42.8009                 7.5511

                    109                    110                    111
                      A                      A                      A
 Frequencies --   3097.3365              3105.3630              3118.7399
 Red. masses --      1.1038                 1.0998                 1.1028
 Frc consts  --      6.2392                 6.2486                 6.3196
 IR Inten    --     25.7613                51.8394                45.7701

                    112                    113                    114
                      A                      A                      A
 Frequencies --   3164.7180              3171.4645              3185.0049
 Red. masses --      1.0876                 1.0870                 1.0883
 Frc consts  --      6.4176                 6.4420                 6.5048
 IR Inten    --     11.5779                 8.4807                 7.4135

                    115                    116                    117
                      A                      A                      A
 Frequencies --   3185.1120              3199.0891              3202.0702
 Red. masses --      1.0882                 1.0933                 1.0955
 Frc consts  --      6.5041                 6.5923                 6.6183
 IR Inten    --     12.7047                32.5285                31.3073

                    118                    119                    120
                      A                      A                      A
 Frequencies --   3210.0081              3224.0832              3528.4426
 Red. masses --      1.0967                 1.0932                 1.0746
 Frc consts  --      6.6584                 6.6949                 7.8827
 IR Inten    --     15.5069                 6.6873                 1.1937

 - Thermochemistry -
 -------------------
 Temperature   298.150 Kelvin.  Pressure   1.00000 Atm.
 Atom     1 has atomic number  6 and mass  12.00000

 Molecular mass:   266.17830 amu.
 Principal axes and moments of inertia in atomic units:
                           1         2         3
     Eigenvalues --  4395.092566167.046009059.51247
           X            0.99940   0.03341   0.00949
           Y           -0.03347   0.99942   0.00630
           Z           -0.00927  -0.00661   0.99994
 This molecule is an asymmetric top.
 Rotational symmetry number  1.
 Warning -- assumption of classical behavior for rotation
           may cause significant error
 Rotational temperatures (Kelvin)      0.01971     0.01404     0.00956
 Rotational constants (GHZ):           0.41063     0.29264     0.19921
 Zero-point vibrational energy     960612.6 (Joules/Mol)
                                  229.59192 (Kcal/Mol)
 Warning -- explicit consideration of  28 degrees of freedom as
           vibrations may cause significant error
 Vibrational temperatures:     30.37    55.01    60.67    95.32   126.71
          (Kelvin)            142.96   193.24   210.85   250.23   286.34
                              329.97   387.14   409.65   448.17   450.40
                              486.55   512.05   541.27   563.31   645.14
                              685.01   694.99   730.86   773.15   809.20
                              836.24   864.22   881.11   924.55  1009.86
                             1060.60  1095.14  1105.70  1119.54  1128.66
                             1134.48  1140.81  1171.76  1230.04  1263.05
                             1278.40  1299.95  1351.02  1366.39  1373.87
                             1392.82  1412.92  1416.53  1419.00  1423.47
                             1514.09  1535.28  1539.80  1553.11  1564.84
                             1579.99  1630.19  1641.48  1656.17  1688.53
                             1703.45  1708.28  1710.30  1717.61  1735.11
                             1765.54  1789.45  1806.06  1818.11  1831.98
                             1860.63  1889.40  1919.80  1925.02  1936.17
                             1951.01  1975.10  1978.36  2010.19  2033.20
                             2047.97  2113.69  2138.07  2141.36  2148.52
                             2152.52  2157.78  2164.24  2167.45  2172.67
                             2190.83  2204.00  2208.06  2210.36  2338.78
                             2354.29  2382.85  2393.38  4222.66  4248.22
                             4290.01  4347.48  4390.86  4394.66  4399.74
                             4410.55  4425.28  4430.35  4456.38  4467.92
                             4487.17  4553.32  4563.03  4582.51  4582.67
                             4602.78  4607.06  4618.49  4638.74  5076.64

 Zero-point correction=                           0.365878 (Hartree/Particle)
 Thermal correction to Energy=                    0.383600
 Thermal correction to Enthalpy=                  0.384544
 Thermal correction to Gibbs Free Energy=         0.319038
 Sum of electronic and zero-point Energies=           -808.406394
 Sum of electronic and thermal Energies=              -808.388672
 Sum of electronic and thermal Enthalpies=            -808.387728
 Sum of electronic and thermal Free Energies=         -808.453234

                     E (Thermal)             CV                S
                      KCal/Mol        Cal/Mol-Kelvin    Cal/Mol-Kelvin
 Total                  240.713             70.452            137.868
 Electronic               0.000              0.000              0.000
 Translational            0.889              2.981             42.636
 Rotational               0.889              2.981             33.862
 Vibrational            238.935             64.490             61.370
 Vibration     1          0.593              1.985              6.527
 Vibration     2          0.594              1.982              5.348
 Vibration     3          0.595              1.980              5.155
 Vibration     4          0.598              1.970              4.262
 Vibration     5          0.601              1.958              3.703
 Vibration     6          0.604              1.950              3.467
 Vibration     7          0.613              1.919              2.883
 Vibration     8          0.617              1.906              2.717
 Vibration     9          0.627              1.875              2.393
 Vibration    10          0.637              1.841              2.142
 Vibration    11          0.652              1.796              1.884
 Vibration    12          0.673              1.730              1.602
 Vibration    13          0.683              1.702              1.505
 Vibration    14          0.700              1.652              1.354
 Vibration    15          0.701              1.649              1.346
 Vibration    16          0.718              1.599              1.221
 Vibration    17          0.731              1.563              1.140
 Vibration    18          0.747              1.521              1.054
 Vibration    19          0.759              1.488              0.994
 Vibration    20          0.807              1.364              0.801
 Vibration    21          0.833              1.303              0.721
 Vibration    22          0.839              1.288              0.702
 Vibration    23          0.863              1.232              0.638
 Vibration    24          0.892              1.167              0.571
 Vibration    25          0.918              1.113              0.519
 Vibration    26          0.938              1.072              0.483
 Vibration    27          0.959              1.030              0.449
 Vibration    28          0.972              1.006              0.429

 Optimization completed.
    -- Stationary point found.
 Normal termination of Gaussian 16 at Fri Sep 23 16:21:08 2022.

 ----------------------------------------------------------------------
 # M062X/def2tzvp int=(grid=ultrafine) pop=nbo7 polar prop=efg volume g
 uess=read geom=check
 ----------------------------------------------------------------------

 ---------
 SecN5.xyz
 ---------
 Structure from the checkpoint file:  "SecN5_clust-2.chk"
 Charge =  0 Multiplicity = 1

 SCF Done:  E(RM062X) =  -808.588067487     A.U. after   12 cycles

  Exact polarizability:     248.758     -12.122     235.364      14.582       9.092     166.942
 Approx polarizability:     298.370      -5.538     287.659      23.190      16.430     234.215

 Summary of Natural Population Analysis:

                                     Natural Population
             Natural    ---------------------------------------------
  Atom No    Charge        Core      Valence    Rydberg      Total
 --------------------------------------------------------------------
    C  1   -0.41731      1.99999     4.40541    0.01191     6.41731
    N  2   -0.62084      1.99999     5.59467    0.02618     7.62084
    C  3   -0.22234      1.99999     4.20857    0.01378     6.22234
    C  4   -0.41892      1.99999     4.40588    0.01304     6.41892
    C  5   -0.19366      1.99999     4.18057    0.01310     6.19366
    N  6   -0.50658      1.99999     5.47662    0.02996     7.50658
    C  7    0.15269      1.99999     3.82893    0.01839     5.84731
    C  8   -0.03884      1.99999     4.02257    0.01629     6.03884
    C  9   -0.40780      1.99999     4.39660    0.01121     6.40780
    C 10   -0.41566      1.99999     4.40411    0.01156     6.41566
    C 11   -0.03267      1.99999     4.01545    0.01723     6.03267
    C 12    0.15881      1.99999     3.82226    0.01894     5.84119
    C 13   -0.20607      1.99999     4.18910    0.01697     6.20607
    C 14   -0.21552      1.99999     4.19933    0.01620     6.21552
    C 15   -0.20935      1.99999     4.19316    0.01620     6.20935
    C 16   -0.20890      1.99999     4.19232    0.01658     6.20890
    C 17   -0.20003      1.99999     4.18388    0.01615     6.20003
    C 18   -0.21386      1.99999     4.19756    0.01631     6.21386
    C 19   -0.21734      1.99999     4.20090    0.01645     6.21734
    C 20   -0.21307      1.99999     4.19577    0.01731     6.21307
    H 21    0.20265      0.00000     0.79628    0.00107     0.79735
    H 22    0.16021      0.00000     0.83707    0.00272     0.83979
    H 23    0.19093      0.00000     0.80759    0.00148     0.80907
    H 24    0.35231      0.00000     0.64558    0.00210     0.64769
    H 25    0.19332      0.00000     0.80499    0.00169     0.80668
    H 26    0.16706      0.00000     0.82986    0.00308     0.83294
    H 27    0.20564      0.00000     0.79257    0.00179     0.79436
    H 28    0.21534      0.00000     0.78306    0.00159     0.78466
    H 29    0.18055      0.00000     0.81672    0.00273     0.81945
    H 30    0.20445      0.00000     0.79365    0.00190     0.79555
    H 31    0.21665      0.00000     0.78134    0.00201     0.78335
    H 32    0.21695      0.00000     0.78143    0.00162     0.78305
    H 33    0.21525      0.00000     0.78325    0.00151     0.78475
    H 34    0.21401      0.00000     0.78381    0.00219     0.78599
    H 35    0.22045      0.00000     0.77803    0.00152     0.77955
    H 36    0.21478      0.00000     0.78407    0.00115     0.78522
    H 37    0.21428      0.00000     0.78458    0.00114     0.78572
    H 38    0.21000      0.00000     0.78853    0.00146     0.79000
    H 39    0.20731      0.00000     0.79129    0.00140     0.79269
    H 40    0.21411      0.00000     0.78474    0.00115     0.78589
    H 41    0.21421      0.00000     0.78460    0.00119     0.78579
    H 42    0.21679      0.00000     0.78111    0.00210     0.78321
 ====================================================================
 * Total *  0.00000     39.99984   103.62781    0.37234   144.00000

 1\1\GINC-NOTCH171\SP\RM062X\def2TZVP\C18H22N2\U6032257\23-Sep-2022\0\\
 # M062X/def2tzvp int=(grid=ultrafine) pop=nbo7 polar prop=efg volume g
 uess=read geom=check\\SecN5.xyz\\0,1\C,0,1.2164398481,-2.2216689502,4.
 3049128659\N,0,0.0018663623,-2.8879837248,3.8494736028\C,0,-0.33362544
 66,-2.5968088612,2.4542507048\C,0,0.5271549404,-3.4008049136,1.4795514
 242\C,0,0.2148943794,-3.102101749,0.0118539641\N,0,0.4365709346,-1.698
 5241424,-0.3853236643\C,0,1.7942755109,-1.2864510488,-0.56589298\C,0,2
 .4553112898,-1.2196734584,-1.8117891144\C,0,1.8387042929,-1.5122890824

 Normal termination of Gaussian 16 at Fri Sep 23 16:29:52 2022.
 Gaussian 16:  ES64L-G16RevC.01  3-Jul-2019

 --------------------------------------------------------------------
 # M062X/def2tzvp int=(grid=ultrafine) nmr=giao guess=read geom=check
 --------------------------------------------------------------------

 ---------
 SecN5.xyz
 ---------
 Structure from the checkpoint file:  "SecN5_clust-2.chk"
 Charge =  0 Multiplicity = 1

                         Standard orientation:
 ---------------------------------------------------------------------
 Center     Atomic      Atomic             Coordinates (Angstroms)
 Number     Number       Type             X           Y           Z
 ---------------------------------------------------------------------
      1          6           0       -4.673209   -0.945817   -0.465393
      2          7           0       -4.036693   -2.030377    0.272959
      3          6           0       -2.578808   -1.911818    0.340031
      4          6           0       -2.136213   -0.882917    1.380639
      5          6           0       -0.616930   -0.720249    1.459269
      6          7           0        0.012642   -0.259555    0.206943
      7          6           0       -0.142094    1.123941   -0.121338
      8          6           0        0.817906    2.125152    0.142598
      9          6           0        2.190793    1.910249    0.759893
     10          6           0        2.484492    0.560196    1.427302
     11          6           0        2.453662   -0.573889    0.437920
     12          6           0        1.230869   -0.916321   -0.161327
     13          6           0        1.180045   -1.939022   -1.110353
     14          6           0        2.338136   -2.627535   -1.472649
     15          6           0        3.556310   -2.286675   -0.886083
     16          6           0        3.609186   -1.262503    0.060310
     17          6           0        0.509057    3.445984   -0.220459
     18          6           0       -0.700593    3.796577   -0.808048
     19          6           0       -1.642945    2.802798   -1.071949
     20          6           0       -1.350933    1.485286   -0.741690
     21          1           0       -5.742777   -1.150898   -0.568023
     22          1           0       -4.254435   -0.781687   -1.476387
     23          1           0       -4.574241   -0.005402    0.085687
     24          1           0       -4.270981   -2.909745   -0.178241
     25          1           0       -2.172131   -2.891213    0.620418
     26          1           0       -2.130448   -1.650707   -0.635521
     27          1           0       -2.591880    0.090455    1.174351
     28          1           0       -2.505238   -1.193656    2.364929
     29          1           0       -0.378193   -0.042217    2.293599
     30          1           0       -0.162378   -1.688056    1.694919
     31          1           0        2.944633    2.066900   -0.023862
     32          1           0        2.354686    2.707620    1.494653
     33          1           0        3.473852    0.613859    1.893025
     34          1           0        1.767055    0.383411    2.235610
     35          1           0        0.220455   -2.180001   -1.555794
     36          1           0        2.289345   -3.421760   -2.211328
     37          1           0        4.463373   -2.815197   -1.163305
     38          1           0        4.558374   -0.996103    0.518254
     39          1           0        1.247266    4.219378   -0.021155
     40          1           0       -0.902061    4.832447   -1.063043
     41          1           0       -2.587757    3.047415   -1.547697
     42          1           0       -2.050554    0.694056   -0.982433
 ---------------------------------------------------------------------

 SCF Done:  E(RM062X) =  -808.588067487     A.U. after    1 cycles

      1  C    Isotropic =   148.2323   Anisotropy =    53.7866

      2  N    Isotropic =   224.5975   Anisotropy =    66.5674

      3  C    Isotropic =   131.7961   Anisotropy =    55.3121

      4  C    Isotropic =   154.1197   Anisotropy =    30.6206

      5  C    Isotropic =   123.5218   Anisotropy =    59.0863

      6  N    Isotropic =   183.8033   Anisotropy =    41.6902

      7  C    Isotropic =    14.7328   Anisotropy =   179.9934

      8  C    Isotropic =    24.6612   Anisotropy =   209.8482

      9  C    Isotropic =   148.8260   Anisotropy =    22.7716

     10  C    Isotropic =   150.7145   Anisotropy =    23.5276

     11  C    Isotropic =    16.8897   Anisotropy =   217.9681

     12  C    Isotropic =     6.2729   Anisotropy =   182.1678

     13  C    Isotropic =    32.5306   Anisotropy =   186.8219

     14  C    Isotropic =    36.0471   Anisotropy =   208.4881

     15  C    Isotropic =    37.2077   Anisotropy =   211.8910

     16  C    Isotropic =    35.5480   Anisotropy =   185.3666

     17  C    Isotropic =    30.8711   Anisotropy =   193.2545

     18  C    Isotropic =    39.0063   Anisotropy =   208.5983

     19  C    Isotropic =    38.5308   Anisotropy =   206.2648

     20  C    Isotropic =    30.2917   Anisotropy =   188.3655

     21  H    Isotropic =    29.1812   Anisotropy =    10.1660

     22  H    Isotropic =    29.4574   Anisotropy =     7.6908

     23  H    Isotropic =    29.0789   Anisotropy =     6.8291

     24  H    Isotropic =    31.4716   Anisotropy =    15.5736

     25  H    Isotropic =    28.9921   Anisotropy =     5.4914

     26  H    Isotropic =    28.0909   Anisotropy =     7.1206

     27  H    Isotropic =    29.6048   Anisotropy =     2.7547

     28  H    Isotropic =    30.7210   Anisotropy =     9.4948

     29  H    Isotropic =    28.1439   Anisotropy =     6.7115

     30  H    Isotropic =    29.0271   Anisotropy =     5.5798

     31  H    Isotropic =    28.9740   Anisotropy =     7.1101

     32  H    Isotropic =    28.6337   Anisotropy =     9.1749

     33  H    Isotropic =    29.2296   Anisotropy =     9.4976

     34  H    Isotropic =    28.1104   Anisotropy =     3.6450

     35  H    Isotropic =    23.7844   Anisotropy =     9.9595

     36  H    Isotropic =    23.9317   Anisotropy =     6.3722

     37  H    Isotropic =    24.0045   Anisotropy =     5.3666

     38  H    Isotropic =    23.9322   Anisotropy =     8.1578

     39  H    Isotropic =    23.9690   Anisotropy =     9.4076

     40  H    Isotropic =    24.0630   Anisotropy =     5.3140

     41  H    Isotropic =    23.9970   Anisotropy =     7.0062

     42  H    Isotropic =    23.6809   Anisotropy =     8.8577

 The electronic state is 1-A.
 Alpha  occ. eigenvalues --  -14.74270 -14.72819 -10.57462 -10.57061 -10.56484
 Alpha  occ. eigenvalues --  -10.55219 -10.55049 -10.54941 -10.54698 -10.54465
 Alpha  occ. eigenvalues --  -10.54224 -10.54192 -10.54117 -10.54058 -10.53829
 Alpha  occ. eigenvalues --  -10.53806 -10.53751 -10.53695 -10.53508 -10.52446
 Alpha  occ. eigenvalues --   -1.04874  -1.00484  -0.95922  -0.94714  -0.89976
 Alpha  occ. eigenvalues --   -0.86740  -0.85271  -0.84483  -0.82018  -0.79761
 Alpha  occ. eigenvalues --   -0.76938  -0.73500  -0.72283  -0.69155  -0.68269
 Alpha  occ. eigenvalues --   -0.66482  -0.65817  -0.63682  -0.59059  -0.57560
 Alpha  occ. eigenvalues --   -0.56620  -0.55283  -0.54277  -0.54009  -0.52864
 Alpha  occ. eigenvalues --   -0.52172  -0.51047  -0.50615  -0.49867  -0.49158
 Alpha  occ. eigenvalues --   -0.48075  -0.47588  -0.46634  -0.45402  -0.45002
 Alpha  occ. eigenvalues --   -0.44833  -0.43654  -0.42949  -0.42066  -0.41653
 Alpha  occ. eigenvalues --   -0.41178  -0.40120  -0.39808  -0.38960  -0.38673
 Alpha  occ. eigenvalues --   -0.38199  -0.31737  -0.30339  -0.29721  -0.29286
 Alpha  occ. eigenvalues --   -0.28884  -0.26604
 Alpha virt. eigenvalues --    0.01410   0.01823   0.02735   0.03007   0.06478
 Alpha virt. eigenvalues --    0.06960   0.08049   0.08286   0.09068   0.09755
 Alpha virt. eigenvalues --    0.10416   0.10853   0.11539   0.12550   0.12679

 Mulliken charges:
               1
     1  C   -0.355500
     2  N   -0.336839
     3  C   -0.287795
     4  C   -0.279234
     5  C   -0.239844
     6  N   -0.215808
     7  C    0.146527
     8  C    0.055618
     9  C   -0.304960
    10  C   -0.452590
    11  C    0.079343
    12  C    0.108524
    13  C   -0.203353
    14  C   -0.138637
    15  C   -0.151792
    16  C   -0.134843
    17  C   -0.178002
    18  C   -0.149084
    19  C   -0.169782
    20  C   -0.227061
    21  H    0.148190
    22  H    0.127699
    23  H    0.149604
    24  H    0.208998
    25  H    0.142281
    26  H    0.170747
    27  H    0.171037
    28  H    0.149145
    29  H    0.144912
    30  H    0.185402
    31  H    0.172354
    32  H    0.155924
    33  H    0.154694
    34  H    0.185251
    35  H    0.151865
    36  H    0.141480
    37  H    0.141389
    38  H    0.136198
    39  H    0.139504
    40  H    0.139978
    41  H    0.139619
    42  H    0.178842
 Sum of Mulliken charges =   0.00000

 Dipole moment (field-independent basis, Debye):
    X=              0.7939    Y=             -0.0820    Z=             -0.1095  Tot=              0.8056
 Quadrupole moment (field-independent basis, Debye-Ang):
   XX=           -114.8381   YY=           -114.3784   ZZ=           -122.5306
   XY=              1.1135   XZ=              8.2356   YZ=              4.6194

 1\1\GINC-NOTCH171\SP\RM062X\def2TZVP\C18H22N2\U6032257\23-Sep-2022\0\\
 # M062X/def2tzvp int=(grid=ultrafine) nmr=giao guess=read geom=check\\
 SecN5.xyz\\0,1\C,0,1.2164398481,-2.2216689502,4.3049128659\N,0,0.00186
 63623,-2.8879837248,3.8494736028\C,0,-0.3336254466,-2.5968088612,2.454
 2507048\C,0,0.5271549404,-3.4008049136,1.4795514242\C,0,0.2148943794,-
 3.102101749,0.0118539641\N,0,0.4365709346,-1.6985241424,-0.3853236643\
 C,0,1.7942755109,-1.2864510488,-0.56589298\C,0,2.4553112898,-1.2196734
 584,-1.8117891144\C,0,1.8387042929,-1.5122890824,-3.1705489811\C,0,0.4

 Normal termination of Gaussian 16 at Fri Sep 23 16:33:27 2022.
