 Gaussian 16, Revision C.01,

 ----------------------------------------------------------------------
 # B3LYP/6-31G(d,p) empiricaldispersion=GD3BJ int=(grid=ultrafine) opt
 freq=noraman
 ----------------------------------------------------------------------

 ---------
 SecN1.xyz
 ---------
 Symbolic Z-matrix:
 Charge =  0 Multiplicity = 1

 SCF Done:  E(RB3LYP) =  -287.824523843     A.U. after   13 cycles
 SCF Done:  E(RB3LYP) =  -287.826493191     A.U. after   10 cycles
 SCF Done:  E(RB3LYP) =  -287.826580932     A.U. after   10 cycles
 SCF Done:  E(RB3LYP) =  -287.826589940     A.U. after    8 cycles
 SCF Done:  E(RB3LYP) =  -287.826590914     A.U. after    7 cycles
 Optimization completed.
    -- Stationary point found.
 Normal termination of Gaussian 16 at Sun Sep 25 07:17:37 2022.

 ----------------------------------------------------------------------
 #N Geom=AllCheck Guess=TCheck SCRF=Check GenChk RB3LYP/6-31G(d,p) Freq
 ----------------------------------------------------------------------

 Structure from the checkpoint file:  "SecN1_conf-2.chk"
 ---------
 SecN1.xyz
 ---------
 Charge =  0 Multiplicity = 1

 SCF Done:  E(RB3LYP) =  -287.826590914     A.U. after    1 cycles

                      1                      2                      3
                      A                      A                      A
 Frequencies --    251.5552               262.9659               415.1786
 Red. masses --      1.7117                 2.4659                 1.7162
 Frc consts  --      0.0638                 0.1005                 0.1743
 IR Inten    --      0.1098                13.3428                 6.9299

                      4                      5                      6
                      A                      A                      A
 Frequencies --    443.1413               486.6651               597.7509
 Red. masses --      6.0778                 2.5627                 1.4256
 Frc consts  --      0.7032                 0.3576                 0.3001
 IR Inten    --      0.6529                 0.6949                 4.0137

                      7                      8                      9
                      A                      A                      A
 Frequencies --    808.4373               848.2593               849.9835
 Red. masses --      2.0628                 1.6244                 2.9473
 Frc consts  --      0.7943                 0.6887                 1.2546
 IR Inten    --    143.1613                 0.7945                30.1298

                     10                     11                     12
                      A                      A                      A
 Frequencies --    891.8185               924.1431              1020.7895
 Red. masses --      2.4115                 1.7884                 2.4241
 Frc consts  --      1.1300                 0.8999                 1.4883
 IR Inten    --      9.0308                 1.4896                 1.1586

                     13                     14                     15
                      A                      A                      A
 Frequencies --   1050.8006              1060.4257              1143.1731
 Red. masses --      1.4807                 2.3416                 5.0483
 Frc consts  --      0.9633                 1.5514                 3.8870
 IR Inten    --     10.3638                 8.1362               106.8306

                     16                     17                     18
                      A                      A                      A
 Frequencies --   1154.3754              1180.4407              1219.7561
 Red. masses --      5.1804                 2.0937                 1.1243
 Frc consts  --      4.0673                 1.7189                 0.9856
 IR Inten    --      7.5929                10.5052                 3.9467

                     19                     20                     21
                      A                      A                      A
 Frequencies --   1281.1581              1328.3259              1351.2441
 Red. masses --      1.2169                 1.2261                 1.2676
 Frc consts  --      1.1768                 1.2746                 1.3637
 IR Inten    --     21.0050                 2.4768                 3.2051

                     22                     23                     24
                      A                      A                      A
 Frequencies --   1358.3436              1390.2379              1404.5156
 Red. masses --      1.2526                 1.2683                 1.3550
 Frc consts  --      1.3617                 1.4443                 1.5749
 IR Inten    --      1.0957                14.1480                 2.4574

                     25                     26                     27
                      A                      A                      A
 Frequencies --   1429.4494              1481.4450              1487.5416
 Red. masses --      1.3412                 1.0753                 1.1640
 Frc consts  --      1.6147                 1.3905                 1.5175
 IR Inten    --      6.0554                 0.0366                 7.8506

                     28                     29                     30
                      A                      A                      A
 Frequencies --   1493.2082              1502.8308              1508.9548
 Red. masses --      1.1046                 1.1152                 1.1087
 Frc consts  --      1.4511                 1.4840                 1.4873
 IR Inten    --      5.5707                 2.6057                 2.7100

                     31                     32                     33
                      A                      A                      A
 Frequencies --   2950.5536              2959.8918              3038.3895
 Red. masses --      1.0711                 1.0714                 1.0596
 Frc consts  --      5.4941                 5.5306                 5.7636
 IR Inten    --     25.0000               108.1585                35.3035

                     34                     35                     36
                      A                      A                      A
 Frequencies --   3042.2483              3089.0065              3090.0551
 Red. masses --      1.0616                 1.0956                 1.0988
 Frc consts  --      5.7888                 6.1593                 6.1815
 IR Inten    --     35.4983                94.3387                 7.6227

                     37                     38                     39
                      A                      A                      A
 Frequencies --   3092.4599              3093.6942              3482.7159
 Red. masses --      1.1012                 1.1003                 1.0736
 Frc consts  --      6.2045                 6.2045                 7.6723
 IR Inten    --      3.9790                69.7826                 2.1287

 - Thermochemistry -
 -------------------
 Temperature   298.150 Kelvin.  Pressure   1.00000 Atm.
 Atom     1 has atomic number  6 and mass  12.00000

 Molecular mass:    87.06841 amu.
 Principal axes and moments of inertia in atomic units:
                           1         2         3
     Eigenvalues --   370.47954 393.79890 676.05255
           X            0.00000   1.00000  -0.00000
           Y            0.99989  -0.00000  -0.01474
           Z            0.01474  -0.00000   0.99989
 This molecule is an asymmetric top.
 Rotational symmetry number  1.
 Rotational temperatures (Kelvin)      0.23379     0.21994     0.12812
 Rotational constants (GHZ):           4.87137     4.58290     2.66953
 Zero-point vibrational energy     355685.2 (Joules/Mol)
                                   85.01081 (Kcal/Mol)
 Warning -- explicit consideration of   6 degrees of freedom as
           vibrations may cause significant error
 Vibrational temperatures:    361.93   378.35   597.35   637.58   700.20
          (Kelvin)            860.03  1163.16  1220.46  1222.94  1283.13
                             1329.64  1468.69  1511.87  1525.72  1644.77
                             1660.89  1698.39  1754.96  1843.30  1911.16
                             1944.14  1954.35  2000.24  2020.78  2056.66
                             2131.47  2140.24  2148.39  2162.24  2171.05
                             4245.19  4258.62  4371.56  4377.12  4444.39
                             4445.90  4449.36  4451.14  5010.85

 Zero-point correction=                           0.135473 (Hartree/Particle)
 Thermal correction to Energy=                    0.140785
 Thermal correction to Enthalpy=                  0.141729
 Thermal correction to Gibbs Free Energy=         0.107010
 Sum of electronic and zero-point Energies=           -287.691118
 Sum of electronic and thermal Energies=              -287.685806
 Sum of electronic and thermal Enthalpies=            -287.684862
 Sum of electronic and thermal Free Energies=         -287.719581

                     E (Thermal)             CV                S
                      KCal/Mol        Cal/Mol-Kelvin    Cal/Mol-Kelvin
 Total                   88.344             20.473             73.074
 Electronic               0.000              0.000              0.000
 Translational            0.889              2.981             39.305
 Rotational               0.889              2.981             26.092
 Vibrational             86.567             14.512              7.676
 Vibration     1          0.664              1.760              1.720
 Vibration     2          0.670              1.741              1.642
 Vibration     3          0.779              1.437              0.909
 Vibration     4          0.803              1.376              0.817
 Vibration     5          0.843              1.280              0.692
 Vibration     6          0.956              1.037              0.454

 Optimization completed.
    -- Stationary point found.
 Normal termination of Gaussian 16 at Sun Sep 25 07:17:53 2022.

 ----------------------------------------------------------------------
 # M062X/def2tzvp int=(grid=ultrafine) pop=nbo7 polar prop=efg volume g
 uess=read geom=check
 ----------------------------------------------------------------------

 ---------
 SecN1.xyz
 ---------
 Structure from the checkpoint file:  "SecN1_conf-2.chk"
 Charge =  0 Multiplicity = 1

 SCF Done:  E(RM062X) =  -287.778042687     A.U. after   11 cycles

  Exact polarizability:      64.030      -0.000      55.378       0.000      -0.189      52.765
 Approx polarizability:      70.613      -0.000      63.289       0.000       1.860      67.429

 Summary of Natural Population Analysis:

                                     Natural Population
             Natural    ---------------------------------------------
  Atom No    Charge        Core      Valence    Rydberg      Total
 --------------------------------------------------------------------
    C  1   -0.25333      1.99999     4.23888    0.01446     6.25333
    C  2   -0.09146      1.99999     4.07456    0.01691     6.09146
    O  3   -0.50911      2.00000     6.48705    0.02207     8.50911
    C  4   -0.09146      1.99999     4.07456    0.01691     6.09146
    C  5   -0.25333      1.99999     4.23888    0.01446     6.25333
    N  6   -0.60971      1.99999     5.58329    0.02643     7.60971
    H  7    0.20086      0.00000     0.79765    0.00149     0.79914
    H  8    0.19120      0.00000     0.80642    0.00237     0.80880
    H  9    0.19146      0.00000     0.80685    0.00169     0.80854
    H 10    0.14893      0.00000     0.84779    0.00327     0.85107
    H 11    0.19146      0.00000     0.80685    0.00169     0.80854
    H 12    0.14893      0.00000     0.84779    0.00327     0.85107
    H 13    0.20086      0.00000     0.79765    0.00149     0.79914
    H 14    0.19120      0.00000     0.80642    0.00237     0.80880
    H 15    0.34349      0.00000     0.65367    0.00284     0.65651
 ====================================================================
 * Total *  0.00000     11.99996    35.86832    0.13172    48.00000

 1\1\GINC-NOTCH144\SP\RM062X\def2TZVP\C4H9N1O1\U6032257\25-Sep-2022\0\\
 # M062X/def2tzvp int=(grid=ultrafine) pop=nbo7 polar prop=efg volume g
 uess=read geom=check\\SecN1.xyz\\0,1\C,0,-0.5014951687,-0.2154140206,-
 1.1494544856\C,0,-0.1236407907,1.2158437087,-0.7635966018\O,0,0.961995
 631,1.226173997,0.1565958854\C,0,0.6506930183,0.4937523166,1.336476169
 7\C,0,0.292275004,-0.9556289868,1.0033281527\N,0,-0.7892713769,-1.0598
 36689,0.0162946726\H,0,-1.3695305474,-0.2169010422,-1.81817232\H,0,0.3
 371174289,-0.66854274,-1.6927778144\H,0,0.2018070672,1.7955783933,-1.6

 Normal termination of Gaussian 16 at Sun Sep 25 07:18:28 2022.
 Gaussian 16:  ES64L-G16RevC.01  3-Jul-2019

 --------------------------------------------------------------------
 # M062X/def2tzvp int=(grid=ultrafine) nmr=giao guess=read geom=check
 --------------------------------------------------------------------

 ---------
 SecN1.xyz
 ---------
 Structure from the checkpoint file:  "SecN1_conf-2.chk"
 Charge =  0 Multiplicity = 1

                         Standard orientation:
 ---------------------------------------------------------------------
 Center     Atomic      Atomic             Coordinates (Angstroms)
 Number     Number       Type             X           Y           Z
 ---------------------------------------------------------------------
      1          6           0        1.205454    0.721791   -0.220524
      2          6           0        1.175935   -0.748569    0.200581
      3          8           0       -0.000004   -1.392307   -0.277159
      4          6           0       -1.175939   -0.748562    0.200582
      5          6           0       -1.205451    0.721797   -0.220524
      6          7           0        0.000004    1.453032    0.188147
      7          1           0        2.087914    1.222565    0.193193
      8          1           0        1.275378    0.775327   -1.314160
      9          1           0        2.023203   -1.304016   -0.213773
     10          1           0        1.222601   -0.819897    1.302505
     11          1           0       -2.023210   -1.304005   -0.213772
     12          1           0       -1.222605   -0.819891    1.302506
     13          1           0       -2.087908    1.222577    0.193190
     14          1           0       -1.275373    0.775331   -1.314161
     15          1           0        0.000004    1.540500    1.204018
 ---------------------------------------------------------------------

 SCF Done:  E(RM062X) =  -287.778042687     A.U. after    1 cycles

      1  C    Isotropic =   135.4860   Anisotropy =    21.0860

      2  C    Isotropic =   112.1572   Anisotropy =    43.7638

      3  O    Isotropic =   287.5717   Anisotropy =    70.7127

      4  C    Isotropic =   112.1572   Anisotropy =    43.7639

      5  C    Isotropic =   135.4860   Anisotropy =    21.0860

      6  N    Isotropic =   214.3480   Anisotropy =    72.7481

      7  H    Isotropic =    29.3539   Anisotropy =     8.1892

      8  H    Isotropic =    29.0847   Anisotropy =     7.6066

      9  H    Isotropic =    28.2317   Anisotropy =     6.7331

     10  H    Isotropic =    28.7490   Anisotropy =     7.2770

     11  H    Isotropic =    28.2317   Anisotropy =     6.7331

     12  H    Isotropic =    28.7490   Anisotropy =     7.2770

     13  H    Isotropic =    29.3539   Anisotropy =     8.1892

     14  H    Isotropic =    29.0847   Anisotropy =     7.6066

     15  H    Isotropic =    31.9182   Anisotropy =    12.1105

 The electronic state is 1-A.
 Alpha  occ. eigenvalues --  -19.62665 -14.73566 -10.58097 -10.58095 -10.55947
 Alpha  occ. eigenvalues --  -10.55945  -1.15810  -1.01112  -0.86681  -0.76945
 Alpha  occ. eigenvalues --   -0.73713  -0.66887  -0.57810  -0.54601  -0.53932
 Alpha  occ. eigenvalues --   -0.53351  -0.51326  -0.45646  -0.44247  -0.42110
 Alpha  occ. eigenvalues --   -0.41058  -0.39192  -0.35174  -0.28099
 Alpha virt. eigenvalues --    0.06473   0.09389   0.09737   0.10910   0.11925
 Alpha virt. eigenvalues --    0.13990   0.14348   0.14465   0.15063   0.16657
 Alpha virt. eigenvalues --    0.18389   0.20866   0.22220   0.23431   0.25339

 Mulliken charges:
               1
     1  C   -0.202774
     2  C   -0.115424
     3  O   -0.306268
     4  C   -0.115424
     5  C   -0.202774
     6  N   -0.346134
     7  H    0.142564
     8  H    0.142951
     9  H    0.132639
    10  H    0.122632
    11  H    0.132639
    12  H    0.122632
    13  H    0.142564
    14  H    0.142951
    15  H    0.207226
 Sum of Mulliken charges =  -0.00000

 Dipole moment (field-independent basis, Debye):
    X=             -0.0000    Y=              0.2387    Z=              1.2404  Tot=              1.2632
 Quadrupole moment (field-independent basis, Debye-Ang):
   XX=            -33.2397   YY=            -44.7310   ZZ=            -36.2863
   XY=             -0.0000   XZ=              0.0000   YZ=              0.4130

 1\1\GINC-NOTCH144\SP\RM062X\def2TZVP\C4H9N1O1\U6032257\25-Sep-2022\0\\
 # M062X/def2tzvp int=(grid=ultrafine) nmr=giao guess=read geom=check\\
 SecN1.xyz\\0,1\C,0,-0.5014951687,-0.2154140206,-1.1494544856\C,0,-0.12
 36407907,1.2158437087,-0.7635966018\O,0,0.961995631,1.226173997,0.1565
 958854\C,0,0.6506930183,0.4937523166,1.3364761697\C,0,0.292275004,-0.9
 556289868,1.0033281527\N,0,-0.7892713769,-1.059836689,0.0162946726\H,0
 ,-1.3695305474,-0.2169010422,-1.81817232\H,0,0.3371174289,-0.66854274,
 -1.6927778144\H,0,0.2018070672,1.7955783933,-1.6331169583\H,0,-0.99877

 Normal termination of Gaussian 16 at Sun Sep 25 07:18:40 2022.
