 Gaussian 16, Revision C.01,

 ----------------------------------------------------------------------
 # B3LYP/6-31G(d,p) empiricaldispersion=GD3BJ int=(grid=ultrafine) opt
 freq=noraman
 ----------------------------------------------------------------------

 ---------
 SecN5.xyz
 ---------
 Symbolic Z-matrix:
 Charge =  0 Multiplicity = 1

 SCF Done:  E(RB3LYP) =  -808.761909554     A.U. after   14 cycles
 SCF Done:  E(RB3LYP) =  -808.771114092     A.U. after   12 cycles
 SCF Done:  E(RB3LYP) =  -808.772319725     A.U. after   12 cycles
 SCF Done:  E(RB3LYP) =  -808.773083838     A.U. after   12 cycles
 SCF Done:  E(RB3LYP) =  -808.772663650     A.U. after   11 cycles
 SCF Done:  E(RB3LYP) =  -808.772865467     A.U. after   12 cycles
 SCF Done:  E(RB3LYP) =  -808.773551532     A.U. after    9 cycles
 SCF Done:  E(RB3LYP) =  -808.773651515     A.U. after   11 cycles
 SCF Done:  E(RB3LYP) =  -808.773702989     A.U. after   10 cycles
 SCF Done:  E(RB3LYP) =  -808.773720075     A.U. after    9 cycles
 SCF Done:  E(RB3LYP) =  -808.773728102     A.U. after    9 cycles
 SCF Done:  E(RB3LYP) =  -808.773730049     A.U. after    9 cycles
 SCF Done:  E(RB3LYP) =  -808.773730712     A.U. after    7 cycles
 SCF Done:  E(RB3LYP) =  -808.773730949     A.U. after    7 cycles
 SCF Done:  E(RB3LYP) =  -808.773730968     A.U. after    7 cycles
 SCF Done:  E(RB3LYP) =  -808.773730970     A.U. after    6 cycles
 Optimization completed.
    -- Stationary point found.
 Normal termination of Gaussian 16 at Fri Sep 23 16:19:30 2022.

 ----------------------------------------------------------------------
 #N Geom=AllCheck Guess=TCheck SCRF=Check GenChk RB3LYP/6-31G(d,p) Freq
 ----------------------------------------------------------------------

 Structure from the checkpoint file:  "SecN5_clust-6.chk"
 ---------
 SecN5.xyz
 ---------
 Charge =  0 Multiplicity = 1

 SCF Done:  E(RB3LYP) =  -808.773730970     A.U. after    1 cycles

                      1                      2                      3
                      A                      A                      A
 Frequencies --     24.1655                34.7219                55.9677
 Red. masses --      3.7156                 3.6951                 4.1406
 Frc consts  --      0.0013                 0.0026                 0.0076
 IR Inten    --      0.1662                 0.5991                 0.3042

                      4                      5                      6
                      A                      A                      A
 Frequencies --     66.8304                94.3439               121.6875
 Red. masses --      3.0999                 3.4237                 2.6033
 Frc consts  --      0.0082                 0.0180                 0.0227
 IR Inten    --      0.6740                 0.8363                 1.1474

                      7                      8                      9
                      A                      A                      A
 Frequencies --    148.3430               166.8942               178.2072
 Red. masses --      3.4753                 2.3335                 2.9918
 Frc consts  --      0.0451                 0.0383                 0.0560
 IR Inten    --      0.2661                 1.4546                 1.0247

                     10                     11                     12
                      A                      A                      A
 Frequencies --    220.4361               243.2310               250.4325
 Red. masses --      2.2097                 1.8863                 2.5375
 Frc consts  --      0.0633                 0.0658                 0.0938
 IR Inten    --      0.4185                 2.5687                 1.9206

                     13                     14                     15
                      A                      A                      A
 Frequencies --    284.8855               320.7571               336.1925
 Red. masses --      3.9485                 4.6238                 3.3442
 Frc consts  --      0.1888                 0.2803                 0.2227
 IR Inten    --      0.5372                 0.5334                 0.3776

                     16                     17                     18
                      A                      A                      A
 Frequencies --    354.9976               383.4161               406.1761
 Red. masses --      3.8054                 3.3146                 2.2452
 Frc consts  --      0.2826                 0.2871                 0.2182
 IR Inten    --      1.2144                 1.3274                 6.1967

                     19                     20                     21
                      A                      A                      A
 Frequencies --    439.4022               465.1395               471.8540
 Red. masses --      2.8415                 2.4279                 2.7617
 Frc consts  --      0.3232                 0.3095                 0.3623
 IR Inten    --      0.3265                 8.5570                 6.1313

                     22                     23                     24
                      A                      A                      A
 Frequencies --    484.5509               520.3296               545.0493
 Red. masses --      3.2656                 3.5595                 3.7643
 Frc consts  --      0.4517                 0.5678                 0.6589
 IR Inten    --      1.4664                 0.8065                 1.2752

                     25                     26                     27
                      A                      A                      A
 Frequencies --    564.1848               573.2440               602.0484
 Red. masses --      3.8800                 3.8060                 3.0478
 Frc consts  --      0.7277                 0.7369                 0.6509
 IR Inten    --      0.6420                 0.8294                 3.6119

                     28                     29                     30
                      A                      A                      A
 Frequencies --    628.3489               640.3480               697.5793
 Red. masses --      5.9768                 4.1820                 4.9901
 Frc consts  --      1.3903                 1.0103                 1.4307
 IR Inten    --      2.0048                 5.0087                 0.0382

                     31                     32                     33
                      A                      A                      A
 Frequencies --    730.6195               753.8279               755.4375
 Red. masses --      2.7908                 1.5643                 3.1831
 Frc consts  --      0.8777                 0.5237                 1.0703
 IR Inten    --      1.3098                 4.6777                 4.3982

                     34                     35                     36
                      A                      A                      A
 Frequencies --    761.5431               767.1394               786.3050
 Red. masses --      1.3375                 1.3911                 1.8219
 Frc consts  --      0.4570                 0.4823                 0.6637
 IR Inten    --     99.9686                21.1958                26.3054

                     37                     38                     39
                      A                      A                      A
 Frequencies --    801.9074               821.4492               850.8260
 Red. masses --      2.0550                 3.6924                 1.3991
 Frc consts  --      0.7786                 1.4680                 0.5967
 IR Inten    --     21.4881                 3.5356                 2.2737

                     40                     41                     42
                      A                      A                      A
 Frequencies --    867.4148               878.4395               886.0065
 Red. masses --      1.4257                 2.6291                 2.2472
 Frc consts  --      0.6320                 1.1953                 1.0394
 IR Inten    --      0.2501                 6.0103                 5.4654

                     43                     44                     45
                      A                      A                      A
 Frequencies --    922.4715               932.7789               939.6394
 Red. masses --      2.2152                 1.3653                 1.3624
 Frc consts  --      1.1107                 0.6999                 0.7087
 IR Inten    --      2.4138                 1.1363                 2.2997

                     46                     47                     48
                      A                      A                      A
 Frequencies --    960.8485               967.7651               969.9621
 Red. masses --      2.2841                 1.2474                 1.9296
 Frc consts  --      1.2424                 0.6883                 1.0696
 IR Inten    --     20.3111                 0.2253                 0.5878

                     49                     50                     51
                      A                      A                      A
 Frequencies --    973.8580              1027.0272              1057.1964
 Red. masses --      1.3817                 2.2054                 2.6647
 Frc consts  --      0.7721                 1.3706                 1.7548
 IR Inten    --      2.4534                 2.2732                 0.3325

                     52                     53                     54
                      A                      A                      A
 Frequencies --   1063.1131              1070.5280              1076.1726
 Red. masses --      1.9293                 2.9478                 2.5167
 Frc consts  --      1.2847                 1.9904                 1.7173
 IR Inten    --     14.7738                 7.9790                17.0887

                     55                     56                     57
                      A                      A                      A
 Frequencies --   1098.7910              1110.2527              1141.8447
 Red. masses --      2.2257                 2.1434                 2.0147
 Frc consts  --      1.5832                 1.5567                 1.5477
 IR Inten    --     10.8838                 6.0120                28.0005

                     58                     59                     60
                      A                      A                      A
 Frequencies --   1148.5060              1163.0127              1166.6831
 Red. masses --      1.5638                 1.7713                 2.0233
 Frc consts  --      1.2153                 1.4116                 1.6226
 IR Inten    --      4.9258                18.6130                 3.2411

                     61                     62                     63
                      A                      A                      A
 Frequencies --   1185.8407              1189.6479              1196.6203
 Red. masses --      1.2541                 1.7358                 1.2283
 Frc consts  --      1.0391                 1.4474                 1.0363
 IR Inten    --      5.5480                27.2502                 0.7061

                     64                     65                     66
                      A                      A                      A
 Frequencies --   1202.1686              1223.6473              1231.3872
 Red. masses --      1.2597                 1.9543                 1.6335
 Frc consts  --      1.0726                 1.7240                 1.4593
 IR Inten    --      0.0346                40.7123                 2.8417

                     67                     68                     69
                      A                      A                      A
 Frequencies --   1238.5405              1246.3215              1250.2204
 Red. masses --      1.6497                 1.8995                 1.6331
 Frc consts  --      1.4910                 1.7384                 1.5040
 IR Inten    --     67.3168                23.2233                27.6861

                     70                     71                     72
                      A                      A                      A
 Frequencies --   1292.4785              1305.4453              1325.7942
 Red. masses --      1.4332                 1.4351                 1.2852
 Frc consts  --      1.4106                 1.4410                 1.3310
 IR Inten    --     26.1349                22.6882                21.9623

                     73                     74                     75
                      A                      A                      A
 Frequencies --   1340.1246              1348.7738              1355.8650
 Red. masses --      1.6589                 5.8439                 1.2644
 Frc consts  --      1.7553                 6.2637                 1.3695
 IR Inten    --      1.7532                37.2089                 9.4682

                     76                     77                     78
                      A                      A                      A
 Frequencies --   1365.6944              1368.1858              1386.4265
 Red. masses --      2.5184                 1.8660                 1.7704
 Frc consts  --      2.7674                 2.0581                 2.0050
 IR Inten    --      1.5773                 0.9270               101.8305

                     79                     80                     81
                      A                      A                      A
 Frequencies --   1395.4155              1408.0540              1419.4845
 Red. masses --      1.4877                 1.3712                 1.3605
 Frc consts  --      1.7068                 1.6017                 1.6152
 IR Inten    --     63.7972                 7.2834                23.9846

                     82                     83                     84
                      A                      A                      A
 Frequencies --   1469.2654              1488.7491              1489.2448
 Red. masses --      1.1815                 2.1159                 1.2483
 Frc consts  --      1.5027                 2.7630                 1.6312
 IR Inten    --      4.0276                41.8167                11.0255

                     85                     86                     87
                      A                      A                      A
 Frequencies --   1491.9933              1501.2278              1504.5992
 Red. masses --      1.8485                 1.0508                 1.1755
 Frc consts  --      2.4244                 1.3952                 1.5678
 IR Inten    --     55.7378                 1.4981                 3.4905

                     88                     89                     90
                      A                      A                      A
 Frequencies --   1508.2525              1512.6237              1516.7755
 Red. masses --      1.3251                 1.1024                 1.1050
 Frc consts  --      1.7760                 1.4862                 1.4978
 IR Inten    --      8.0393                 4.7459                 4.3706

                     91                     92                     93
                      A                      A                      A
 Frequencies --   1532.2575              1536.2935              1544.5095
 Red. masses --      1.0964                 1.8299                 1.3911
 Frc consts  --      1.5166                 2.5446                 1.9553
 IR Inten    --      4.1087               188.7458                33.6568

                     94                     95                     96
                      A                      A                      A
 Frequencies --   1551.7435              1626.4622              1637.8567
 Red. masses --      1.7192                 5.8118                 6.5273
 Frc consts  --      2.4390                 9.0583                10.3165
 IR Inten    --      4.3259                 7.2808                 9.7493

                     97                     98                     99
                      A                      A                      A
 Frequencies --   1656.0003              1665.2017              2950.5331
 Red. masses --      5.5424                 5.6284                 1.0710
 Frc consts  --      8.9551                 9.1953                 5.4935
 IR Inten    --     62.9347                12.2266                55.7232

                    100                    101                    102
                      A                      A                      A
 Frequencies --   2957.7837              3034.7176              3046.3974
 Red. masses --      1.0597                 1.0644                 1.0616
 Frc consts  --      5.4620                 5.7756                 5.8048
 IR Inten    --    144.0911                23.9134                23.0934

                    103                    104                    105
                      A                      A                      A
 Frequencies --   3053.3506              3057.1859              3074.2929
 Red. masses --      1.0887                 1.0720                 1.0730
 Frc consts  --      5.9800                 5.9035                 5.9752
 IR Inten    --     13.9219                31.4902                17.4544

                    106                    107                    108
                      A                      A                      A
 Frequencies --   3079.9416              3080.5102              3097.0068
 Red. masses --      1.0995                 1.0674                 1.1020
 Frc consts  --      6.1452                 5.9681                 6.2274
 IR Inten    --     34.8995                41.9980                28.6755

                    109                    110                    111
                      A                      A                      A
 Frequencies --   3111.3174              3120.3590              3146.4996
 Red. masses --      1.1003                 1.1023                 1.0941
 Frc consts  --      6.2755                 6.3237                 6.3821
 IR Inten    --     30.9419                26.0611                11.4358

                    112                    113                    114
                      A                      A                      A
 Frequencies --   3170.4785              3172.5554              3183.9350
 Red. masses --      1.0873                 1.0870                 1.0890
 Frc consts  --      6.4393                 6.4459                 6.5042
 IR Inten    --     12.3085                 9.7510                16.9781

                    115                    116                    117
                      A                      A                      A
 Frequencies --   3184.9443              3205.4598              3208.3695
 Red. masses --      1.0892                 1.0969                 1.0968
 Frc consts  --      6.5096                 6.6405                 6.6522
 IR Inten    --     19.8382                33.8010                30.0403

                    118                    119                    120
                      A                      A                      A
 Frequencies --   3266.7603              3279.3743              3544.8775
 Red. masses --      1.0900                 1.0884                 1.0750
 Frc consts  --      6.8533                 6.8961                 7.9592
 IR Inten    --      1.1743                11.0761                 0.0328

 - Thermochemistry -
 -------------------
 Temperature   298.150 Kelvin.  Pressure   1.00000 Atm.
 Atom     1 has atomic number  6 and mass  12.00000

 Molecular mass:   266.17830 amu.
 Principal axes and moments of inertia in atomic units:
                           1         2         3
     Eigenvalues --  4265.829636095.932189826.61203
           X            0.99855  -0.05363  -0.00446
           Y            0.05362   0.99856  -0.00119
           Z            0.00452   0.00095   0.99999
 This molecule is an asymmetric top.
 Rotational symmetry number  1.
 Warning -- assumption of classical behavior for rotation
           may cause significant error
 Rotational temperatures (Kelvin)      0.02030     0.01421     0.00881
 Rotational constants (GHZ):           0.42307     0.29606     0.18366
 Zero-point vibrational energy     964853.9 (Joules/Mol)
                                  230.60562 (Kcal/Mol)
 Warning -- explicit consideration of  27 degrees of freedom as
           vibrations may cause significant error
 Vibrational temperatures:     34.77    49.96    80.53    96.15   135.74
          (Kelvin)            175.08   213.43   240.12   256.40   317.16
                              349.96   360.32   409.89   461.50   483.71
                              510.76   551.65   584.40   632.20   669.23
                              678.89   697.16   748.64   784.20   811.74
                              824.77   866.21   904.05   921.32  1003.66
                             1051.20  1084.59  1086.91  1095.69  1103.74
                             1131.32  1153.77  1181.88  1224.15  1248.02
                             1263.88  1274.77  1327.23  1342.06  1351.93
                             1382.45  1392.40  1395.56  1401.16  1477.66
                             1521.07  1529.58  1540.25  1548.37  1580.92
                             1597.41  1642.86  1652.44  1673.32  1678.60
                             1706.16  1711.64  1721.67  1729.65  1760.56
                             1771.69  1781.98  1793.18  1798.79  1859.59
                             1878.24  1907.52  1928.14  1940.58  1950.79
                             1964.93  1968.51  1994.76  2007.69  2025.88
                             2042.32  2113.95  2141.98  2142.69  2146.65
                             2159.93  2164.78  2170.04  2176.33  2182.30
                             2204.58  2210.38  2222.20  2232.61  2340.12
                             2356.51  2382.62  2395.85  4245.16  4255.59
                             4366.28  4383.09  4393.09  4398.61  4423.22
                             4431.35  4432.17  4455.90  4476.49  4489.50
                             4527.11  4561.61  4564.60  4580.97  4582.42
                             4611.94  4616.13  4700.14  4718.29  5100.29

 Zero-point correction=                           0.367493 (Hartree/Particle)
 Thermal correction to Energy=                    0.384875
 Thermal correction to Enthalpy=                  0.385819
 Thermal correction to Gibbs Free Energy=         0.321476
 Sum of electronic and zero-point Energies=           -808.406238
 Sum of electronic and thermal Energies=              -808.388856
 Sum of electronic and thermal Enthalpies=            -808.387912
 Sum of electronic and thermal Free Energies=         -808.452255

                     E (Thermal)             CV                S
                      KCal/Mol        Cal/Mol-Kelvin    Cal/Mol-Kelvin
 Total                  241.513             70.071            135.421
 Electronic               0.000              0.000              0.000
 Translational            0.889              2.981             42.636
 Rotational               0.889              2.981             33.901
 Vibrational            239.735             64.109             58.884
 Vibration     1          0.593              1.985              6.259
 Vibration     2          0.594              1.983              5.540
 Vibration     3          0.596              1.975              4.595
 Vibration     4          0.598              1.970              4.245
 Vibration     5          0.603              1.953              3.568
 Vibration     6          0.609              1.931              3.073
 Vibration     7          0.618              1.904              2.693
 Vibration     8          0.624              1.883              2.470
 Vibration     9          0.629              1.869              2.347
 Vibration    10          0.647              1.810              1.956
 Vibration    11          0.659              1.774              1.779
 Vibration    12          0.663              1.762              1.728
 Vibration    13          0.683              1.702              1.504
 Vibration    14          0.706              1.634              1.306
 Vibration    15          0.717              1.603              1.230
 Vibration    16          0.731              1.565              1.144
 Vibration    17          0.753              1.506              1.026
 Vibration    18          0.771              1.457              0.940
 Vibration    19          0.799              1.384              0.828
 Vibration    20          0.823              1.327              0.751
 Vibration    21          0.829              1.312              0.732
 Vibration    22          0.841              1.284              0.698
 Vibration    23          0.875              1.205              0.609
 Vibration    24          0.900              1.151              0.555
 Vibration    25          0.920              1.109              0.516
 Vibration    26          0.929              1.089              0.498
 Vibration    27          0.960              1.027              0.446

 Optimization completed.
    -- Stationary point found.
 Normal termination of Gaussian 16 at Fri Sep 23 16:22:09 2022.

 ----------------------------------------------------------------------
 # M062X/def2tzvp int=(grid=ultrafine) pop=nbo7 polar prop=efg volume g
 uess=read geom=check
 ----------------------------------------------------------------------

 ---------
 SecN5.xyz
 ---------
 Structure from the checkpoint file:  "SecN5_clust-6.chk"
 Charge =  0 Multiplicity = 1

 SCF Done:  E(RM062X) =  -808.590634277     A.U. after   11 cycles

  Exact polarizability:     270.567      24.313     263.438       1.866      -4.591     142.580
 Approx polarizability:     316.055      20.828     323.664       4.407      -9.168     207.594

 Summary of Natural Population Analysis:

                                     Natural Population
             Natural    ---------------------------------------------
  Atom No    Charge        Core      Valence    Rydberg      Total
 --------------------------------------------------------------------
    C  1   -0.41852      1.99999     4.40610    0.01243     6.41852
    N  2   -0.63772      1.99999     5.61200    0.02572     7.63772
    C  3   -0.21842      1.99999     4.20497    0.01346     6.21842
    C  4   -0.42864      1.99999     4.41700    0.01165     6.42864
    C  5   -0.21983      1.99999     4.20552    0.01432     6.21983
    N  6   -0.41467      1.99999     5.39276    0.02191     7.41467
    C  7    0.17864      1.99999     3.80455    0.01682     5.82136
    C  8   -0.06428      1.99999     4.04811    0.01618     6.06428
    C  9   -0.40360      1.99999     4.39281    0.01079     6.40360
    C 10   -0.41450      1.99999     4.40312    0.01139     6.41450
    C 11   -0.03848      1.99999     4.02150    0.01699     6.03848
    C 12    0.16232      1.99999     3.82060    0.01710     5.83768
    C 13   -0.24693      1.99999     4.23058    0.01636     6.24693
    C 14   -0.20729      1.99999     4.19082    0.01648     6.20729
    C 15   -0.22962      1.99999     4.21276    0.01687     6.22962
    C 16   -0.20116      1.99999     4.18469    0.01648     6.20116
    C 17   -0.18475      1.99999     4.16851    0.01624     6.18475
    C 18   -0.24829      1.99999     4.23094    0.01736     6.24829
    C 19   -0.19898      1.99999     4.18233    0.01666     6.19898
    C 20   -0.26557      1.99999     4.24930    0.01628     6.26557
    H 21    0.19055      0.00000     0.80794    0.00151     0.80945
    H 22    0.16762      0.00000     0.82969    0.00269     0.83238
    H 23    0.20430      0.00000     0.79463    0.00107     0.79570
    H 24    0.36002      0.00000     0.63799    0.00199     0.63998
    H 25    0.17146      0.00000     0.82532    0.00322     0.82854
    H 26    0.19311      0.00000     0.80515    0.00174     0.80689
    H 27    0.20915      0.00000     0.78924    0.00161     0.79085
    H 28    0.21346      0.00000     0.78514    0.00140     0.78654
    H 29    0.19935      0.00000     0.79842    0.00223     0.80065
    H 30    0.23176      0.00000     0.76602    0.00221     0.76824
    H 31    0.21594      0.00000     0.78219    0.00188     0.78406
    H 32    0.21149      0.00000     0.78693    0.00159     0.78851
    H 33    0.21328      0.00000     0.78526    0.00146     0.78672
    H 34    0.21931      0.00000     0.77888    0.00181     0.78069
    H 35    0.22639      0.00000     0.77134    0.00227     0.77361
    H 36    0.21186      0.00000     0.78690    0.00124     0.78814
    H 37    0.21373      0.00000     0.78512    0.00116     0.78627
    H 38    0.20795      0.00000     0.79064    0.00141     0.79205
    H 39    0.20550      0.00000     0.79312    0.00138     0.79450
    H 40    0.21408      0.00000     0.78476    0.00116     0.78592
    H 41    0.21095      0.00000     0.78787    0.00118     0.78905
    H 42    0.20902      0.00000     0.78938    0.00160     0.79098
 ====================================================================
 * Total *  0.00000     39.99984   103.64086    0.35930   144.00000

 1\1\GINC-NOTCH270\SP\RM062X\def2TZVP\C18H22N2\U6032257\23-Sep-2022\0\\
 # M062X/def2tzvp int=(grid=ultrafine) pop=nbo7 polar prop=efg volume g
 uess=read geom=check\\SecN5.xyz\\0,1\C,0,-1.932115141,-1.3787979404,3.
 5648008036\N,0,-1.1989051928,-2.556959653,3.114456189\C,0,0.2526885742
 ,-2.4433356533,3.2759341125\C,0,0.8934241625,-1.7044308839,2.096452156
 \C,0,0.8440229481,-2.5553883261,0.8120613962\N,0,0.9759070889,-1.81526
 36803,-0.453492434\C,0,2.2679422111,-1.3404931773,-0.798277275\C,0,2.6
 028559597,-0.605274069,-1.9715198037\C,0,1.6647102839,-0.3366520245,-3

 Normal termination of Gaussian 16 at Fri Sep 23 16:30:28 2022.
 Gaussian 16:  ES64L-G16RevC.01  3-Jul-2019

 --------------------------------------------------------------------
 # M062X/def2tzvp int=(grid=ultrafine) nmr=giao guess=read geom=check
 --------------------------------------------------------------------

 ---------
 SecN5.xyz
 ---------
 Structure from the checkpoint file:  "SecN5_clust-6.chk"
 Charge =  0 Multiplicity = 1

                         Standard orientation:
 ---------------------------------------------------------------------
 Center     Atomic      Atomic             Coordinates (Angstroms)
 Number     Number       Type             X           Y           Z
 ---------------------------------------------------------------------
      1          6           0        4.482883   -1.151227   -0.944637
      2          7           0        3.858072   -1.430784    0.343746
      3          6           0        2.867932   -2.509386    0.295279
      4          6           0        1.497344   -1.994476   -0.156445
      5          6           0        0.852898   -1.102997    0.923454
      6          7           0       -0.197016   -0.184102    0.454287
      7          6           0       -1.461578   -0.746392    0.140674
      8          6           0       -2.601073   -0.031805   -0.328505
      9          6           0       -2.701488    1.471621   -0.427718
     10          6           0       -1.977368    2.180469    0.727977
     11          6           0       -0.523570    2.291326    0.389733
     12          6           0        0.264823    1.139319    0.185258
     13          6           0        1.605488    1.324826   -0.210123
     14          6           0        2.142815    2.593169   -0.404166
     15          6           0        1.357190    3.726543   -0.217960
     16          6           0        0.031992    3.555107    0.169901
     17          6           0       -3.768218   -0.739836   -0.640979
     18          6           0       -3.893962   -2.116294   -0.503189
     19          6           0       -2.804808   -2.811573    0.006630
     20          6           0       -1.628996   -2.141996    0.320314
     21          1           0        3.740893   -0.751704   -1.643538
     22          1           0        4.942215   -2.035640   -1.421021
     23          1           0        5.254050   -0.386265   -0.817729
     24          1           0        4.579606   -1.661351    1.018871
     25          1           0        3.187016   -3.337049   -0.363174
     26          1           0        2.775341   -2.929737    1.304513
     27          1           0        1.599457   -1.424930   -1.085430
     28          1           0        0.856640   -2.844866   -0.403484
     29          1           0        0.446476   -1.722303    1.729677
     30          1           0        1.634355   -0.495066    1.376846
     31          1           0       -2.291934    1.845649   -1.374277
     32          1           0       -3.763615    1.736221   -0.425261
     33          1           0       -2.392875    3.180708    0.881322
     34          1           0       -2.134384    1.615901    1.654691
     35          1           0        2.257550    0.475405   -0.345314
     36          1           0        3.182048    2.683805   -0.705789
     37          1           0        1.764543    4.721269   -0.367190
     38          1           0       -0.602220    4.423991    0.324710
     39          1           0       -4.619503   -0.163441   -0.993598
     40          1           0       -4.818985   -2.620077   -0.762516
     41          1           0       -2.854255   -3.884746    0.165655
     42          1           0       -0.823642   -2.739952    0.712806
 ---------------------------------------------------------------------

 SCF Done:  E(RM062X) =  -808.590634277     A.U. after    1 cycles

      1  C    Isotropic =   149.2854   Anisotropy =    54.8254

      2  N    Isotropic =   230.0976   Anisotropy =    57.9899

      3  C    Isotropic =   133.6835   Anisotropy =    45.7689

      4  C    Isotropic =   159.5087   Anisotropy =    25.0709

      5  C    Isotropic =   129.2001   Anisotropy =    57.1690

      6  N    Isotropic =   136.4464   Anisotropy =    57.0475

      7  C    Isotropic =    18.8561   Anisotropy =   178.0604

      8  C    Isotropic =    34.7865   Anisotropy =   192.8587

      9  C    Isotropic =   141.0648   Anisotropy =    31.4003

     10  C    Isotropic =   145.6492   Anisotropy =    21.1530

     11  C    Isotropic =    24.4720   Anisotropy =   212.1729

     12  C    Isotropic =    14.0857   Anisotropy =   167.8752

     13  C    Isotropic =    43.1337   Anisotropy =   194.0401

     14  C    Isotropic =    38.0251   Anisotropy =   206.8567

     15  C    Isotropic =    43.1762   Anisotropy =   200.6911

     16  C    Isotropic =    36.1549   Anisotropy =   175.3954

     17  C    Isotropic =    31.0762   Anisotropy =   181.6552

     18  C    Isotropic =    49.1010   Anisotropy =   193.6322

     19  C    Isotropic =    37.4220   Anisotropy =   205.7635

     20  C    Isotropic =    50.0407   Anisotropy =   180.7347

     21  H    Isotropic =    29.0090   Anisotropy =     5.5672

     22  H    Isotropic =    29.6342   Anisotropy =    10.5391

     23  H    Isotropic =    29.1353   Anisotropy =    10.0976

     24  H    Isotropic =    31.4754   Anisotropy =    15.6990

     25  H    Isotropic =    29.1809   Anisotropy =     8.9412

     26  H    Isotropic =    29.1145   Anisotropy =     7.6398

     27  H    Isotropic =    30.0100   Anisotropy =     4.3755

     28  H    Isotropic =    29.4350   Anisotropy =     8.5352

     29  H    Isotropic =    27.9103   Anisotropy =     5.1165

     30  H    Isotropic =    27.5824   Anisotropy =     4.9958

     31  H    Isotropic =    28.8824   Anisotropy =     4.9943

     32  H    Isotropic =    28.7699   Anisotropy =     9.4451

     33  H    Isotropic =    28.9194   Anisotropy =     9.0054

     34  H    Isotropic =    28.7810   Anisotropy =     3.8765

     35  H    Isotropic =    23.4599   Anisotropy =    10.0365

     36  H    Isotropic =    23.9442   Anisotropy =     7.8817

     37  H    Isotropic =    24.2533   Anisotropy =     5.2173

     38  H    Isotropic =    24.1777   Anisotropy =     8.1830

     39  H    Isotropic =    24.0923   Anisotropy =     9.1023

     40  H    Isotropic =    24.5047   Anisotropy =     4.7804

     41  H    Isotropic =    24.0114   Anisotropy =     6.7031

     42  H    Isotropic =    24.1325   Anisotropy =    12.1014

 The electronic state is 1-A.
 Alpha  occ. eigenvalues --  -14.77459 -14.74003 -10.58763 -10.58049 -10.56676
 Alpha  occ. eigenvalues --  -10.56561 -10.55907 -10.54225 -10.54116 -10.53461
 Alpha  occ. eigenvalues --  -10.53409 -10.53356 -10.53354 -10.53347 -10.53241
 Alpha  occ. eigenvalues --  -10.53129 -10.53086 -10.53007 -10.52994 -10.52455
 Alpha  occ. eigenvalues --   -1.06059  -1.01685  -0.95520  -0.94596  -0.89667
 Alpha  occ. eigenvalues --   -0.87188  -0.84753  -0.84672  -0.81386  -0.79878
 Alpha  occ. eigenvalues --   -0.77273  -0.74103  -0.73184  -0.68154  -0.67741
 Alpha  occ. eigenvalues --   -0.66692  -0.66369  -0.63978  -0.59377  -0.58155
 Alpha  occ. eigenvalues --   -0.57832  -0.54805  -0.54484  -0.53769  -0.52752
 Alpha  occ. eigenvalues --   -0.52324  -0.51217  -0.50871  -0.49014  -0.48373
 Alpha  occ. eigenvalues --   -0.48180  -0.47447  -0.46432  -0.45830  -0.45395
 Alpha  occ. eigenvalues --   -0.44632  -0.43937  -0.43092  -0.42078  -0.41727
 Alpha  occ. eigenvalues --   -0.40670  -0.40488  -0.39933  -0.38981  -0.38416
 Alpha  occ. eigenvalues --   -0.38101  -0.36259  -0.30137  -0.30020  -0.29359
 Alpha  occ. eigenvalues --   -0.28893  -0.23318
 Alpha virt. eigenvalues --    0.01878   0.02767   0.03372   0.04987   0.05617
 Alpha virt. eigenvalues --    0.07671   0.07921   0.08344   0.09508   0.09705
 Alpha virt. eigenvalues --    0.10340   0.11635   0.11909   0.12365   0.12546

 Mulliken charges:
               1
     1  C   -0.342671
     2  N   -0.374515
     3  C   -0.223489
     4  C   -0.332881
     5  C   -0.345699
     6  N   -0.140163
     7  C    0.172961
     8  C    0.028775
     9  C   -0.314984
    10  C   -0.380601
    11  C    0.106629
    12  C    0.083295
    13  C   -0.062558
    14  C   -0.219398
    15  C   -0.147269
    16  C   -0.168277
    17  C   -0.161136
    18  C   -0.181488
    19  C   -0.176791
    20  C   -0.218528
    21  H    0.151268
    22  H    0.133513
    23  H    0.151599
    24  H    0.213447
    25  H    0.148990
    26  H    0.152541
    27  H    0.206919
    28  H    0.152007
    29  H    0.187434
    30  H    0.215862
    31  H    0.176077
    32  H    0.138641
    33  H    0.146281
    34  H    0.184566
    35  H    0.076833
    36  H    0.136094
    37  H    0.136938
    38  H    0.133373
    39  H    0.129479
    40  H    0.136179
    41  H    0.134984
    42  H    0.155762
 Sum of Mulliken charges =  -0.00000

 Dipole moment (field-independent basis, Debye):
    X=              1.9368    Y=             -1.1070    Z=              0.2289  Tot=              2.2425
 Quadrupole moment (field-independent basis, Debye-Ang):
   XX=           -108.3468   YY=           -112.7403   ZZ=           -125.4060
   XY=             -8.0719   XZ=              0.6103   YZ=             -2.7846

 1\1\GINC-NOTCH270\SP\RM062X\def2TZVP\C18H22N2\U6032257\23-Sep-2022\0\\
 # M062X/def2tzvp int=(grid=ultrafine) nmr=giao guess=read geom=check\\
 SecN5.xyz\\0,1\C,0,-1.932115141,-1.3787979404,3.5648008036\N,0,-1.1989
 051928,-2.556959653,3.114456189\C,0,0.2526885742,-2.4433356533,3.27593
 41125\C,0,0.8934241625,-1.7044308839,2.096452156\C,0,0.8440229481,-2.5
 553883261,0.8120613962\N,0,0.9759070889,-1.8152636803,-0.453492434\C,0
 ,2.2679422111,-1.3404931773,-0.798277275\C,0,2.6028559597,-0.605274069
 ,-1.9715198037\C,0,1.6647102839,-0.3366520245,-3.1238830204\C,0,0.7293

 Normal termination of Gaussian 16 at Fri Sep 23 16:33:59 2022.
