 Gaussian 16, Revision C.01,

 ----------------------------------------------------------------------
 # B3LYP/6-31G(d,p) empiricaldispersion=GD3BJ int=(grid=ultrafine) opt
 freq=noraman
 ----------------------------------------------------------------------

 ---------
 SecN1.xyz
 ---------
 Symbolic Z-matrix:
 Charge =  0 Multiplicity = 1

 SCF Done:  E(RB3LYP) =  -287.821939199     A.U. after   12 cycles
 SCF Done:  E(RB3LYP) =  -287.826509902     A.U. after   11 cycles
 SCF Done:  E(RB3LYP) =  -287.827014731     A.U. after   11 cycles
 SCF Done:  E(RB3LYP) =  -287.827088171     A.U. after   10 cycles
 SCF Done:  E(RB3LYP) =  -287.827091697     A.U. after    7 cycles
 Optimization completed.
    -- Stationary point found.
 Normal termination of Gaussian 16 at Sun Sep 25 07:15:59 2022.

 ----------------------------------------------------------------------
 #N Geom=AllCheck Guess=TCheck SCRF=Check GenChk RB3LYP/6-31G(d,p) Freq
 ----------------------------------------------------------------------

 Structure from the checkpoint file:  "SecN1_conf-1.chk"
 ---------
 SecN1.xyz
 ---------
 Charge =  0 Multiplicity = 1

 SCF Done:  E(RB3LYP) =  -287.827091697     A.U. after    1 cycles

                      1                      2                      3
                      A                      A                      A
 Frequencies --    262.7648               267.6169               423.4104
 Red. masses --      1.7628                 2.4947                 1.8704
 Frc consts  --      0.0717                 0.1053                 0.1976
 IR Inten    --      1.2532                 9.6778                 0.0740

                      4                      5                      6
                      A                      A                      A
 Frequencies --    445.3443               480.4165               588.3733
 Red. masses --      4.7101                 2.7892                 1.5511
 Frc consts  --      0.5504                 0.3793                 0.3164
 IR Inten    --      7.2707                 1.1132                31.8532

                      7                      8                      9
                      A                      A                      A
 Frequencies --    800.9037               852.2930               870.4131
 Red. masses --      1.6048                 3.3900                 1.5598
 Frc consts  --      0.6065                 1.4509                 0.6963
 IR Inten    --    102.3078                 7.0523                 0.5531

                     10                     11                     12
                      A                      A                      A
 Frequencies --    900.5096               926.2843              1045.3237
 Red. masses --      2.2702                 2.4403                 1.8631
 Frc consts  --      1.0847                 1.2336                 1.1995
 IR Inten    --      5.8778                14.9594                 7.8813

                     13                     14                     15
                      A                      A                      A
 Frequencies --   1088.0150              1098.4754              1131.3889
 Red. masses --      2.1618                 1.6689                 3.7847
 Frc consts  --      1.5078                 1.1864                 2.8544
 IR Inten    --      9.6434                 0.0012                89.2729

                     16                     17                     18
                      A                      A                      A
 Frequencies --   1153.4134              1164.5901              1231.0871
 Red. masses --      2.1771                 3.3911                 1.1083
 Frc consts  --      1.7065                 2.7098                 0.9897
 IR Inten    --      2.1013                41.4986                 6.7806

                     19                     20                     21
                      A                      A                      A
 Frequencies --   1255.3018              1308.2974              1340.6593
 Red. masses --      1.2563                 1.2465                 1.1844
 Frc consts  --      1.1664                 1.2571                 1.2543
 IR Inten    --      6.2211                 7.3857                 3.5402

                     22                     23                     24
                      A                      A                      A
 Frequencies --   1354.3815              1386.3573              1422.1468
 Red. masses --      1.2926                 1.2125                 1.3492
 Frc consts  --      1.3970                 1.3731                 1.6077
 IR Inten    --     28.7661                27.7102                 4.9079

                     25                     26                     27
                      A                      A                      A
 Frequencies --   1441.7159              1487.1200              1494.8962
 Red. masses --      1.4971                 1.2597                 1.0815
 Frc consts  --      1.8334                 1.6414                 1.4240
 IR Inten    --      1.4587                 0.0074                 0.1955

                     28                     29                     30
                      A                      A                      A
 Frequencies --   1500.7699              1508.6882              1515.9815
 Red. masses --      1.1519                 1.1132                 1.1102
 Frc consts  --      1.5286                 1.4929                 1.5032
 IR Inten    --      0.6594                 9.8401                 0.7601

                     31                     32                     33
                      A                      A                      A
 Frequencies --   2941.0795              2946.8299              2992.6696
 Red. masses --      1.0722                 1.0711                 1.0685
 Frc consts  --      5.4644                 5.4803                 5.6384
 IR Inten    --     36.9252               104.2761                18.0143

                     34                     35                     36
                      A                      A                      A
 Frequencies --   2998.6287              3076.6222              3077.2110
 Red. masses --      1.0690                 1.0902                 1.0917
 Frc consts  --      5.6635                 6.0799                 6.0907
 IR Inten    --    107.3178                55.8887                30.7856

                     37                     38                     39
                      A                      A                      A
 Frequencies --   3105.5911              3107.6344              3528.5699
 Red. masses --      1.0950                 1.0966                 1.0750
 Frc consts  --      6.2225                 6.2395                 7.8860
 IR Inten    --     49.4432                30.8307                 0.6492

 - Thermochemistry -
 -------------------
 Temperature   298.150 Kelvin.  Pressure   1.00000 Atm.
 Atom     1 has atomic number  6 and mass  12.00000

 Molecular mass:    87.06841 amu.
 Principal axes and moments of inertia in atomic units:
                           1         2         3
     Eigenvalues --   367.10423 390.52502 673.93113
           X            0.00001   1.00000  -0.00000
           Y            0.99946  -0.00001  -0.03293
           Z            0.03293  -0.00000   0.99946
 This molecule is an asymmetric top.
 Rotational symmetry number  1.
 Rotational temperatures (Kelvin)      0.23594     0.22179     0.12852
 Rotational constants (GHZ):           4.91615     4.62132     2.67793
 Zero-point vibrational energy     356019.3 (Joules/Mol)
                                   85.09065 (Kcal/Mol)
 Warning -- explicit consideration of   6 degrees of freedom as
           vibrations may cause significant error
 Vibrational temperatures:    378.06   385.04   609.19   640.75   691.21
          (Kelvin)            846.54  1152.32  1226.26  1252.33  1295.63
                             1332.72  1503.99  1565.41  1580.46  1627.82
                             1659.50  1675.59  1771.26  1806.10  1882.35
                             1928.91  1948.65  1994.66  2046.15  2074.31
                             2139.63  2150.82  2159.27  2170.67  2181.16
                             4231.56  4239.83  4305.78  4314.36  4426.57
                             4427.42  4468.25  4471.19  5076.83

 Zero-point correction=                           0.135601 (Hartree/Particle)
 Thermal correction to Energy=                    0.140877
 Thermal correction to Enthalpy=                  0.141821
 Thermal correction to Gibbs Free Energy=         0.107181
 Sum of electronic and zero-point Energies=           -287.691491
 Sum of electronic and thermal Energies=              -287.686215
 Sum of electronic and thermal Enthalpies=            -287.685270
 Sum of electronic and thermal Free Energies=         -287.719911

                     E (Thermal)             CV                S
                      KCal/Mol        Cal/Mol-Kelvin    Cal/Mol-Kelvin
 Total                   88.402             20.351             72.907
 Electronic               0.000              0.000              0.000
 Translational            0.889              2.981             39.305
 Rotational               0.889              2.981             26.072
 Vibrational             86.624             14.389              7.530
 Vibration     1          0.670              1.741              1.643
 Vibration     2          0.673              1.733              1.612
 Vibration     3          0.786              1.419              0.880
 Vibration     4          0.805              1.371              0.810
 Vibration     5          0.837              1.293              0.709
 Vibration     6          0.946              1.057              0.470

 Optimization completed.
    -- Stationary point found.
 Normal termination of Gaussian 16 at Sun Sep 25 07:16:15 2022.

 ----------------------------------------------------------------------
 # M062X/def2tzvp int=(grid=ultrafine) pop=nbo7 polar prop=efg volume g
 uess=read geom=check
 ----------------------------------------------------------------------

 ---------
 SecN1.xyz
 ---------
 Structure from the checkpoint file:  "SecN1_conf-1.chk"
 Charge =  0 Multiplicity = 1

 SCF Done:  E(RM062X) =  -287.779497610     A.U. after   11 cycles

  Exact polarizability:      63.928      -0.000      56.695      -0.000      -0.859      52.012
 Approx polarizability:      70.353      -0.000      64.849       0.000       1.032      65.699

 Summary of Natural Population Analysis:

                                     Natural Population
             Natural    ---------------------------------------------
  Atom No    Charge        Core      Valence    Rydberg      Total
 --------------------------------------------------------------------
    C  1   -0.25102      1.99999     4.23736    0.01367     6.25102
    C  2   -0.08023      1.99999     4.06264    0.01759     6.08023
    O  3   -0.50903      2.00000     6.48723    0.02180     8.50903
    C  4   -0.08023      1.99999     4.06264    0.01759     6.08023
    C  5   -0.25102      1.99999     4.23736    0.01367     6.25102
    N  6   -0.62627      1.99999     5.60073    0.02555     7.62627
    H  7    0.16526      0.00000     0.83155    0.00319     0.83474
    H  8    0.20214      0.00000     0.79643    0.00143     0.79786
    H  9    0.18973      0.00000     0.80867    0.00160     0.81027
    H 10    0.16226      0.00000     0.83476    0.00298     0.83774
    H 11    0.16226      0.00000     0.83476    0.00298     0.83774
    H 12    0.18973      0.00000     0.80867    0.00160     0.81027
    H 13    0.20214      0.00000     0.79643    0.00143     0.79786
    H 14    0.16526      0.00000     0.83155    0.00319     0.83474
    H 15    0.35902      0.00000     0.63902    0.00197     0.64098
 ====================================================================
 * Total *  0.00000     11.99996    35.86981    0.13023    48.00000

 1\1\GINC-NOTCH144\SP\RM062X\def2TZVP\C4H9N1O1\U6032257\25-Sep-2022\0\\
 # M062X/def2tzvp int=(grid=ultrafine) pop=nbo7 polar prop=efg volume g
 uess=read geom=check\\SecN1.xyz\\0,1\C,0,0.3028434965,-0.9620779388,0.
 9946857712\C,0,0.6262123528,0.4885908308,1.3404467165\O,0,0.9361950475
 ,1.2357777401,0.1693997276\C,0,-0.1462043372,1.2088790188,-0.754405039
 7\C,0,-0.4894487556,-0.2232565952,-1.1540661118\N,0,-0.8228373158,-0.9
 733077055,0.0584267942\H,0,1.2135677989,-1.4318276315,0.5790746687\H,0
 ,0.0240326903,-1.506509458,1.903711657\H,0,1.503446952,0.5506358726,1.

 Normal termination of Gaussian 16 at Sun Sep 25 07:16:48 2022.
 Gaussian 16:  ES64L-G16RevC.01  3-Jul-2019

 --------------------------------------------------------------------
 # M062X/def2tzvp int=(grid=ultrafine) nmr=giao guess=read geom=check
 --------------------------------------------------------------------

 ---------
 SecN1.xyz
 ---------
 Structure from the checkpoint file:  "SecN1_conf-1.chk"
 Charge =  0 Multiplicity = 1

                         Standard orientation:
 ---------------------------------------------------------------------
 Center     Atomic      Atomic             Coordinates (Angstroms)
 Number     Number       Type             X           Y           Z
 ---------------------------------------------------------------------
      1          6           0       -1.203191    0.717529   -0.200780
      2          6           0       -1.173019   -0.754800    0.199089
      3          8           0       -0.000009   -1.393566   -0.292596
      4          6           0        1.173009   -0.754815    0.199088
      5          6           0        1.203200    0.717514   -0.200780
      6          7           0        0.000009    1.363713    0.327066
      7          1           0       -1.276152    0.777219   -1.302565
      8          1           0       -2.090246    1.199253    0.225301
      9          1           0       -2.023070   -1.294454   -0.227383
     10          1           0       -1.214765   -0.832314    1.297262
     11          1           0        1.214754   -0.832330    1.297261
     12          1           0        2.023053   -1.294480   -0.227385
     13          1           0        2.090262    1.199223    0.225304
     14          1           0        1.276165    0.777204   -1.302564
     15          1           0        0.000015    2.350650    0.086367
 ---------------------------------------------------------------------

 SCF Done:  E(RM062X) =  -287.779497610     A.U. after    1 cycles

      1  C    Isotropic =   134.8860   Anisotropy =    20.5445

      2  C    Isotropic =   114.2963   Anisotropy =    50.7317

      3  O    Isotropic =   288.9327   Anisotropy =    67.1304

      4  C    Isotropic =   114.2964   Anisotropy =    50.7317

      5  C    Isotropic =   134.8861   Anisotropy =    20.5446

      6  N    Isotropic =   212.0578   Anisotropy =    42.5435

      7  H    Isotropic =    29.0876   Anisotropy =     8.1041

      8  H    Isotropic =    29.3339   Anisotropy =     8.2329

      9  H    Isotropic =    28.2929   Anisotropy =     7.3468

     10  H    Isotropic =    28.4398   Anisotropy =     7.5794

     11  H    Isotropic =    28.4398   Anisotropy =     7.5794

     12  H    Isotropic =    28.2929   Anisotropy =     7.3468

     13  H    Isotropic =    29.3339   Anisotropy =     8.2329

     14  H    Isotropic =    29.0876   Anisotropy =     8.1041

     15  H    Isotropic =    31.2247   Anisotropy =    14.6479

 The electronic state is 1-A.
 Alpha  occ. eigenvalues --  -19.62318 -14.73576 -10.57794 -10.57792 -10.55931
 Alpha  occ. eigenvalues --  -10.55929  -1.15512  -1.01136  -0.86576  -0.77396
 Alpha  occ. eigenvalues --   -0.73342  -0.64926  -0.59834  -0.54177  -0.53514
 Alpha  occ. eigenvalues --   -0.51451  -0.50272  -0.48674  -0.45507  -0.41570
 Alpha  occ. eigenvalues --   -0.40957  -0.37244  -0.32920  -0.29546
 Alpha virt. eigenvalues --    0.06520   0.09488   0.10062   0.10833   0.12869
 Alpha virt. eigenvalues --    0.14079   0.14377   0.14487   0.15917   0.17012
 Alpha virt. eigenvalues --    0.18199   0.21220   0.21275   0.23477   0.24942

 Mulliken charges:
               1
     1  C   -0.184686
     2  C   -0.101023
     3  O   -0.313985
     4  C   -0.101023
     5  C   -0.184686
     6  N   -0.371587
     7  H    0.132613
     8  H    0.133024
     9  H    0.129787
    10  H    0.127552
    11  H    0.127552
    12  H    0.129787
    13  H    0.133024
    14  H    0.132613
    15  H    0.211037
 Sum of Mulliken charges =  -0.00000

 Dipole moment (field-independent basis, Debye):
    X=              0.0000    Y=              1.5484    Z=             -0.2291  Tot=              1.5653
 Quadrupole moment (field-independent basis, Debye-Ang):
   XX=            -33.3332   YY=            -38.4490   ZZ=            -39.7377
   XY=             -0.0000   XZ=             -0.0000   YZ=             -2.7251

 1\1\GINC-NOTCH144\SP\RM062X\def2TZVP\C4H9N1O1\U6032257\25-Sep-2022\0\\
 # M062X/def2tzvp int=(grid=ultrafine) nmr=giao guess=read geom=check\\
 SecN1.xyz\\0,1\C,0,0.3028434965,-0.9620779388,0.9946857712\C,0,0.62621
 23528,0.4885908308,1.3404467165\O,0,0.9361950475,1.2357777401,0.169399
 7276\C,0,-0.1462043372,1.2088790188,-0.7544050397\C,0,-0.4894487556,-0
 .2232565952,-1.1540661118\N,0,-0.8228373158,-0.9733077055,0.0584267942
 \H,0,1.2135677989,-1.4318276315,0.5790746687\H,0,0.0240326903,-1.50650
 9458,1.903711657\H,0,1.503446952,0.5506358726,1.9902942542\H,0,-0.2357

 Normal termination of Gaussian 16 at Sun Sep 25 07:17:01 2022.
