 Gaussian 16, Revision C.01,

 ----------------------------------------------------------------------
 # B3LYP/6-31G(d,p) empiricaldispersion=GD3BJ int=(grid=ultrafine) opt
 freq=noraman
 ----------------------------------------------------------------------

 ---------
 SecN5.xyz
 ---------
 Symbolic Z-matrix:
 Charge =  0 Multiplicity = 1

 SCF Done:  E(RB3LYP) =  -808.765840638     A.U. after   14 cycles
 SCF Done:  E(RB3LYP) =  -808.774265415     A.U. after   12 cycles
 SCF Done:  E(RB3LYP) =  -808.770360669     A.U. after   12 cycles
 SCF Done:  E(RB3LYP) =  -808.774802402     A.U. after   12 cycles
 SCF Done:  E(RB3LYP) =  -808.774340533     A.U. after   12 cycles
 SCF Done:  E(RB3LYP) =  -808.775306960     A.U. after   11 cycles
 SCF Done:  E(RB3LYP) =  -808.775975689     A.U. after   12 cycles
 SCF Done:  E(RB3LYP) =  -808.775990473     A.U. after   10 cycles
 SCF Done:  E(RB3LYP) =  -808.776025752     A.U. after    9 cycles
 SCF Done:  E(RB3LYP) =  -808.776030656     A.U. after    9 cycles
 SCF Done:  E(RB3LYP) =  -808.776031758     A.U. after    8 cycles
 SCF Done:  E(RB3LYP) =  -808.776032238     A.U. after    7 cycles
 Optimization completed.
    -- Stationary point found.
 Normal termination of Gaussian 16 at Fri Sep 23 16:19:38 2022.

 ----------------------------------------------------------------------
 #N Geom=AllCheck Guess=TCheck SCRF=Check GenChk RB3LYP/6-31G(d,p) Freq
 ----------------------------------------------------------------------

 Structure from the checkpoint file:  "SecN5_clust-1.chk"
 ---------
 SecN5.xyz
 ---------
 Charge =  0 Multiplicity = 1

 SCF Done:  E(RB3LYP) =  -808.776032238     A.U. after    1 cycles

                      1                      2                      3
                      A                      A                      A
 Frequencies --     39.5009                56.8203                72.7989
 Red. masses --      4.0831                 4.1505                 3.1644
 Frc consts  --      0.0038                 0.0079                 0.0099
 IR Inten    --      0.5838                 0.3138                 0.2751

                      4                      5                      6
                      A                      A                      A
 Frequencies --     77.9611                98.0564               105.1377
 Red. masses --      3.8594                 3.6716                 3.8062
 Frc consts  --      0.0138                 0.0208                 0.0248
 IR Inten    --      0.3878                 0.1663                 0.5390

                      7                      8                      9
                      A                      A                      A
 Frequencies --    140.4314               164.9640               175.0274
 Red. masses --      3.1090                 2.7837                 3.0065
 Frc consts  --      0.0361                 0.0446                 0.0543
 IR Inten    --      0.1466                 1.4669                 1.0640

                     10                     11                     12
                      A                      A                      A
 Frequencies --    216.2575               222.3107               257.4570
 Red. masses --      1.4485                 2.2694                 2.5259
 Frc consts  --      0.0399                 0.0661                 0.0986
 IR Inten    --      1.1796                 0.4895                 0.0805

                     13                     14                     15
                      A                      A                      A
 Frequencies --    300.7632               307.9648               327.5528
 Red. masses --      3.5369                 2.9576                 2.6191
 Frc consts  --      0.1885                 0.1653                 0.1656
 IR Inten    --      2.7175                 1.3436                 2.0791

                     16                     17                     18
                      A                      A                      A
 Frequencies --    345.4283               357.3747               373.5098
 Red. masses --      4.0652                 3.2073                 3.7026
 Frc consts  --      0.2858                 0.2413                 0.3043
 IR Inten    --      1.6660                 5.7292                 0.5491

                     19                     20                     21
                      A                      A                      A
 Frequencies --    434.3346               445.9572               475.5759
 Red. masses --      1.8233                 2.7117                 2.3394
 Frc consts  --      0.2027                 0.3177                 0.3117
 IR Inten    --      3.4579                 1.2427                 1.4790

                     22                     23                     24
                      A                      A                      A
 Frequencies --    479.8884               498.2411               534.5856
 Red. masses --      3.1145                 3.2965                 3.3258
 Frc consts  --      0.4226                 0.4822                 0.5600
 IR Inten    --      1.3153                 2.9450                 5.8200

                     25                     26                     27
                      A                      A                      A
 Frequencies --    557.3320               577.7830               595.8043
 Red. masses --      3.6837                 3.8289                 3.2553
 Frc consts  --      0.6742                 0.7531                 0.6808
 IR Inten    --      2.4230                 4.1407                 0.6101

                     28                     29                     30
                      A                      A                      A
 Frequencies --    617.0979               634.7912               699.3539
 Red. masses --      4.0218                 5.7458                 5.0374
 Frc consts  --      0.9024                 1.3642                 1.4516
 IR Inten    --     11.3299                 1.4678                 0.9616

                     31                     32                     33
                      A                      A                      A
 Frequencies --    734.6043               761.8785               764.2358
 Red. masses --      2.5350                 2.0366                 2.6949
 Frc consts  --      0.8060                 0.6965                 0.9274
 IR Inten    --      8.2592                11.5796                 8.2962

                     34                     35                     36
                      A                      A                      A
 Frequencies --    770.6512               785.5657               788.1007
 Red. masses --      1.9069                 2.0282                 1.7919
 Frc consts  --      0.6672                 0.7374                 0.6557
 IR Inten    --     17.1071                 8.7399                47.3306

                     37                     38                     39
                      A                      A                      A
 Frequencies --    799.7912               854.9366               870.1089
 Red. masses --      2.8411                 1.7891                 1.7371
 Frc consts  --      1.0708                 0.7705                 0.7749
 IR Inten    --     19.0564                22.1707                 6.7329

                     40                     41                     42
                      A                      A                      A
 Frequencies --    879.4200               889.0646               901.1228
 Red. masses --      1.4032                 1.5233                 2.5830
 Frc consts  --      0.6394                 0.7094                 1.2358
 IR Inten    --      4.7290                 3.1140                17.3683

                     43                     44                     45
                      A                      A                      A
 Frequencies --    919.6713               945.5745               952.4117
 Red. masses --      2.0079                 2.0153                 1.4740
 Frc consts  --      1.0006                 1.0617                 0.7878
 IR Inten    --     13.9498                 1.9854                 0.1575

                     46                     47                     48
                      A                      A                      A
 Frequencies --    955.6441               980.5467               983.7740
 Red. masses --      1.6640                 2.1799                 1.3127
 Frc consts  --      0.8954                 1.2349                 0.7485
 IR Inten    --      2.3297                 0.4439                 0.5402

                     49                     50                     51
                      A                      A                      A
 Frequencies --    986.9615              1001.7435              1037.9373
 Red. masses --      1.2678                 1.9646                 1.8758
 Frc consts  --      0.7276                 1.1615                 1.1906
 IR Inten    --      0.4952                12.6274                 2.9605

                     52                     53                     54
                      A                      A                      A
 Frequencies --   1055.8228              1072.4764              1080.2311
 Red. masses --      2.5799                 2.4164                 2.7610
 Frc consts  --      1.6945                 1.6375                 1.8982
 IR Inten    --      1.7489                 0.8790                15.4561

                     55                     56                     57
                      A                      A                      A
 Frequencies --   1084.6535              1092.9788              1133.7495
 Red. masses --      2.0593                 2.0619                 1.9191
 Frc consts  --      1.4274                 1.4512                 1.4534
 IR Inten    --     19.5743                 9.3319                 7.0995

                     58                     59                     60
                      A                      A                      A
 Frequencies --   1142.3237              1152.6096              1170.8644
 Red. masses --      2.0190                 1.7705                 1.7176
 Frc consts  --      1.5523                 1.3859                 1.3873
 IR Inten    --     24.0944                 5.3375                18.0492

                     61                     62                     63
                      A                      A                      A
 Frequencies --   1186.7763              1190.5425              1191.9262
 Red. masses --      1.1016                 1.1799                 1.3354
 Frc consts  --      0.9142                 0.9854                 1.1178
 IR Inten    --      1.0747                 4.0348                 8.7253

                     64                     65                     66
                      A                      A                      A
 Frequencies --   1194.6627              1207.8576              1222.6204
 Red. masses --      1.3495                 2.0157                 2.4834
 Frc consts  --      1.1348                 1.7327                 2.1871
 IR Inten    --      8.0085                 4.4314                22.2972

                     67                     68                     69
                      A                      A                      A
 Frequencies --   1234.3571              1244.6614              1254.6799
 Red. masses --      1.5202                 2.0812                 1.5351
 Frc consts  --      1.3646                 1.8996                 1.4238
 IR Inten    --     39.1009                13.2190                21.0084

                     70                     71                     72
                      A                      A                      A
 Frequencies --   1287.4650              1301.1098              1317.0919
 Red. masses --      1.4800                 1.4233                 1.5238
 Frc consts  --      1.4454                 1.4196                 1.5575
 IR Inten    --     13.8843                 1.7312                 0.9960

                     73                     74                     75
                      A                      A                      A
 Frequencies --   1335.4366              1343.0707              1356.5244
 Red. masses --      1.9143                 2.6770                 3.1834
 Frc consts  --      2.0114                 2.8451                 3.4514
 IR Inten    --      6.8333                 8.5068                 3.0800

                     76                     77                     78
                      A                      A                      A
 Frequencies --   1367.1231              1370.8177              1388.8863
 Red. masses --      1.6965                 1.8322                 1.3306
 Frc consts  --      1.8682                 2.0285                 1.5123
 IR Inten    --     15.2666                 6.9875                10.1502

                     79                     80                     81
                      A                      A                      A
 Frequencies --   1395.7664              1402.1592              1413.7013
 Red. masses --      1.4656                 1.3762                 1.3313
 Frc consts  --      1.6823                 1.5941                 1.5676
 IR Inten    --      7.5725                 4.5798                25.8986

                     82                     83                     84
                      A                      A                      A
 Frequencies --   1467.7041              1486.3970              1488.4372
 Red. masses --      1.1582                 1.4622                 1.2787
 Frc consts  --      1.4700                 1.9034                 1.6691
 IR Inten    --      2.3678                30.2547                 0.7700

                     85                     86                     87
                      A                      A                      A
 Frequencies --   1490.0881              1494.1521              1496.8095
 Red. masses --      1.1807                 1.5729                 1.3437
 Frc consts  --      1.5446                 2.0689                 1.7737
 IR Inten    --      4.2479                 6.2760                 0.7837

                     88                     89                     90
                      A                      A                      A
 Frequencies --   1504.8392              1506.1682              1509.2109
 Red. masses --      1.1126                 1.2359                 1.1157
 Frc consts  --      1.4845                 1.6518                 1.4972
 IR Inten    --     23.8840                 3.3012                 5.7920

                     91                     92                     93
                      A                      A                      A
 Frequencies --   1516.1845              1532.7957              1535.9710
 Red. masses --      1.1912                 1.2814                 2.5121
 Frc consts  --      1.6134                 1.7738                 3.4918
 IR Inten    --     19.9242                11.1524                79.2475

                     94                     95                     96
                      A                      A                      A
 Frequencies --   1541.8792              1626.5965              1637.2760
 Red. masses --      1.7538                 6.1473                 6.2327
 Frc consts  --      2.4566                 9.5828                 9.8439
 IR Inten    --     23.4407                10.6814                 1.5376

                     97                     98                     99
                      A                      A                      A
 Frequencies --   1656.9263              1664.5063              2942.8378
 Red. masses --      5.9275                 5.9168                 1.0601
 Frc consts  --      9.5880                 9.6584                 5.4089
 IR Inten    --      7.0142                 4.4098                75.8178

                    100                    101                    102
                      A                      A                      A
 Frequencies --   2983.8332              3014.3925              3023.5992
 Red. masses --      1.0707                 1.0666                 1.0644
 Frc consts  --      5.6166                 5.7104                 5.7335
 IR Inten    --     44.1473                37.1541                21.8286

                    103                    104                    105
                      A                      A                      A
 Frequencies --   3033.5734              3049.4557              3059.8950
 Red. masses --      1.0662                 1.0640                 1.0735
 Frc consts  --      5.7810                 5.8297                 5.9219
 IR Inten    --     40.1872                17.4549                56.1382

                    106                    107                    108
                      A                      A                      A
 Frequencies --   3068.2644              3069.1749              3078.0739
 Red. masses --      1.0965                 1.0943                 1.0964
 Frc consts  --      6.0818                 6.0735                 6.1201
 IR Inten    --     62.8846                40.0547                 8.6937

                    109                    110                    111
                      A                      A                      A
 Frequencies --   3096.0715              3096.7675              3107.6711
 Red. masses --      1.1024                 1.0955                 1.1022
 Frc consts  --      6.2259                 6.1896                 6.2714
 IR Inten    --     43.0666                29.2325                33.2757

                    112                    113                    114
                      A                      A                      A
 Frequencies --   3165.9708              3173.2749              3186.7395
 Red. masses --      1.0876                 1.0873                 1.0879
 Frc consts  --      6.4230                 6.4506                 6.5094
 IR Inten    --     12.0723                 7.8016                10.2392

                    115                    116                    117
                      A                      A                      A
 Frequencies --   3188.3823              3203.0436              3204.2670
 Red. masses --      1.0893                 1.0945                 1.0962
 Frc consts  --      6.5244                 6.6161                 6.6315
 IR Inten    --     12.9566                31.6548                27.4678

                    118                    119                    120
                      A                      A                      A
 Frequencies --   3216.6350              3243.7686              3528.8266
 Red. masses --      1.0946                 1.0913                 1.0737
 Frc consts  --      6.6729                 6.7655                 7.8777
 IR Inten    --      6.9198                 3.4705                21.5066

 - Thermochemistry -
 -------------------
 Temperature   298.150 Kelvin.  Pressure   1.00000 Atm.
 Atom     1 has atomic number  6 and mass  12.00000

 Molecular mass:   266.17830 amu.
 Principal axes and moments of inertia in atomic units:
                           1         2         3
     Eigenvalues --  4639.647505112.870868208.46589
           X            0.98026   0.19764  -0.00501
           Y           -0.19766   0.98027  -0.00220
           Z            0.00448   0.00315   0.99999
 This molecule is an asymmetric top.
 Rotational symmetry number  1.
 Warning -- assumption of classical behavior for rotation
           may cause significant error
 Rotational temperatures (Kelvin)      0.01867     0.01694     0.01055
 Rotational constants (GHZ):           0.38898     0.35298     0.21986
 Zero-point vibrational energy     962020.2 (Joules/Mol)
                                  229.92834 (Kcal/Mol)
 Warning -- explicit consideration of  28 degrees of freedom as
           vibrations may cause significant error
 Vibrational temperatures:     56.83    81.75   104.74   112.17   141.08
          (Kelvin)            151.27   202.05   237.35   251.83   311.15
                              319.86   370.42   432.73   443.09   471.28
                              496.99   514.18   537.40   624.91   641.63
                              684.25   690.45   716.86   769.15   801.88
                              831.30   857.23   887.87   913.32  1006.21
                             1056.93  1096.17  1099.56  1108.80  1130.25
                             1133.90  1150.72  1230.06  1251.89  1265.29
                             1279.17  1296.51  1323.20  1360.47  1370.31
                             1374.96  1410.79  1415.43  1420.02  1441.29
                             1493.36  1519.09  1543.05  1554.21  1560.57
                             1572.55  1631.21  1643.55  1658.35  1684.61
                             1707.51  1712.93  1714.92  1718.85  1737.84
                             1759.08  1775.96  1790.79  1805.20  1852.37
                             1872.01  1895.00  1921.40  1932.38  1951.74
                             1966.99  1972.30  1998.30  2008.20  2017.39
                             2034.00  2111.70  2138.59  2141.53  2143.90
                             2149.75  2153.57  2165.13  2167.04  2171.42
                             2181.45  2205.35  2209.92  2218.42  2340.31
                             2355.67  2383.95  2394.85  4234.09  4293.07
                             4337.04  4350.28  4364.64  4387.49  4402.51
                             4414.55  4415.86  4428.66  4454.56  4455.56
                             4471.25  4555.13  4565.63  4585.01  4587.37
                             4608.47  4610.23  4628.02  4667.06  5077.19

 Zero-point correction=                           0.366414 (Hartree/Particle)
 Thermal correction to Energy=                    0.383834
 Thermal correction to Enthalpy=                  0.384779
 Thermal correction to Gibbs Free Energy=         0.321447
 Sum of electronic and zero-point Energies=           -808.409618
 Sum of electronic and thermal Energies=              -808.392198
 Sum of electronic and thermal Enthalpies=            -808.391254
 Sum of electronic and thermal Free Energies=         -808.454585

                     E (Thermal)             CV                S
                      KCal/Mol        Cal/Mol-Kelvin    Cal/Mol-Kelvin
 Total                  240.860             70.293            133.293
 Electronic               0.000              0.000              0.000
 Translational            0.889              2.981             42.636
 Rotational               0.889              2.981             33.631
 Vibrational            239.082             64.332             57.025
 Vibration     1          0.594              1.981              5.284
 Vibration     2          0.596              1.975              4.565
 Vibration     3          0.599              1.967              4.076
 Vibration     4          0.599              1.964              3.942
 Vibration     5          0.603              1.951              3.493
 Vibration     6          0.605              1.945              3.357
 Vibration     7          0.615              1.913              2.798
 Vibration     8          0.623              1.886              2.492
 Vibration     9          0.627              1.873              2.381
 Vibration    10          0.645              1.816              1.990
 Vibration    11          0.648              1.807              1.940
 Vibration    12          0.667              1.750              1.679
 Vibration    13          0.693              1.672              1.413
 Vibration    14          0.698              1.659              1.373
 Vibration    15          0.711              1.620              1.272
 Vibration    16          0.724              1.585              1.187
 Vibration    17          0.733              1.560              1.134
 Vibration    18          0.745              1.526              1.065
 Vibration    19          0.795              1.395              0.845
 Vibration    20          0.805              1.370              0.808
 Vibration    21          0.832              1.304              0.722
 Vibration    22          0.836              1.295              0.710
 Vibration    23          0.854              1.254              0.663
 Vibration    24          0.890              1.174              0.577
 Vibration    25          0.913              1.124              0.529
 Vibration    26          0.934              1.079              0.489
 Vibration    27          0.954              1.041              0.457
 Vibration    28          0.977              0.996              0.421

                           ! Non-Optimized Parameters !
 Normal termination of Gaussian 16 at Fri Sep 23 16:24:14 2022.

 ----------------------------------------------------------------------
 # M062X/def2tzvp int=(grid=ultrafine) pop=nbo7 polar prop=efg volume g
 uess=read geom=check
 ----------------------------------------------------------------------

 ---------
 SecN5.xyz
 ---------
 Structure from the checkpoint file:  "SecN5_clust-1.chk"
 Charge =  0 Multiplicity = 1

 SCF Done:  E(RM062X) =  -808.590251695     A.U. after   12 cycles

  Exact polarizability:     245.201      -9.865     243.054      -6.761      -5.256     162.140
 Approx polarizability:     294.466      -3.470     304.223     -12.119      -9.360     224.352

 Summary of Natural Population Analysis:

                                     Natural Population
             Natural    ---------------------------------------------
  Atom No    Charge        Core      Valence    Rydberg      Total
 --------------------------------------------------------------------
    C  1   -0.41942      1.99999     4.40691    0.01252     6.41942
    N  2   -0.64036      1.99999     5.61351    0.02685     7.64036
    C  3   -0.22103      1.99999     4.20587    0.01517     6.22103
    C  4   -0.43254      1.99999     4.42140    0.01114     6.43254
    C  5   -0.19595      1.99999     4.18254    0.01343     6.19595
    N  6   -0.50583      1.99999     5.47655    0.02929     7.50583
    C  7    0.14965      1.99999     3.83115    0.01921     5.85035
    C  8   -0.02779      1.99999     4.01019    0.01761     6.02779
    C  9   -0.41763      1.99999     4.40599    0.01166     6.41763
    C 10   -0.40576      1.99999     4.39471    0.01106     6.40576
    C 11   -0.04953      1.99999     4.03343    0.01611     6.04953
    C 12    0.16062      1.99999     3.82167    0.01772     5.83938
    C 13   -0.22647      1.99999     4.20930    0.01718     6.22647
    C 14   -0.20875      1.99999     4.19229    0.01646     6.20875
    C 15   -0.22056      1.99999     4.20411    0.01645     6.22056
    C 16   -0.19515      1.99999     4.17903    0.01613     6.19515
    C 17   -0.20924      1.99999     4.19261    0.01663     6.20924
    C 18   -0.20592      1.99999     4.18981    0.01612     6.20592
    C 19   -0.21608      1.99999     4.19979    0.01630     6.21608
    C 20   -0.20805      1.99999     4.19085    0.01720     6.20805
    H 21    0.19261      0.00000     0.80585    0.00154     0.80739
    H 22    0.20170      0.00000     0.79714    0.00116     0.79830
    H 23    0.15938      0.00000     0.83794    0.00269     0.84062
    H 24    0.37033      0.00000     0.62737    0.00231     0.62967
    H 25    0.19398      0.00000     0.80418    0.00184     0.80602
    H 26    0.18606      0.00000     0.81189    0.00205     0.81394
    H 27    0.20743      0.00000     0.79086    0.00171     0.79257
    H 28    0.21121      0.00000     0.78741    0.00139     0.78879
    H 29    0.18216      0.00000     0.81499    0.00285     0.81784
    H 30    0.20691      0.00000     0.79110    0.00199     0.79309
    H 31    0.21595      0.00000     0.78256    0.00149     0.78405
    H 32    0.21455      0.00000     0.78330    0.00215     0.78545
    H 33    0.21737      0.00000     0.78065    0.00198     0.78263
    H 34    0.21627      0.00000     0.78214    0.00159     0.78373
    H 35    0.22266      0.00000     0.77543    0.00191     0.77734
    H 36    0.21572      0.00000     0.78312    0.00116     0.78428
    H 37    0.21448      0.00000     0.78438    0.00114     0.78552
    H 38    0.20709      0.00000     0.79153    0.00139     0.79291
    H 39    0.21083      0.00000     0.78771    0.00146     0.78917
    H 40    0.21533      0.00000     0.78355    0.00113     0.78467
    H 41    0.21608      0.00000     0.78274    0.00117     0.78392
    H 42    0.21773      0.00000     0.78069    0.00158     0.78227
 ====================================================================
 * Total *  0.00000     39.99984   103.62822    0.37193   144.00000

 1\1\GINC-NOTCH167\SP\RM062X\def2TZVP\C18H22N2\U6032257\23-Sep-2022\0\\
 # M062X/def2tzvp int=(grid=ultrafine) pop=nbo7 polar prop=efg volume g
 uess=read geom=check\\SecN5.xyz\\0,1\C,0,0.819590621,-1.1682561774,3.8
 454324622\N,0,-0.1997799708,-1.5874159683,2.8929280445\C,0,-0.22340623
 17,-3.031246972,2.653158924\C,0,0.8249235296,-3.5781216868,1.667274399
 5\C,0,0.481302187,-3.313108588,0.198542401\N,0,0.5242862859,-1.8889945
 554,-0.2011347596\C,0,1.8479956142,-1.3903752674,-0.439384176\C,0,2.49
 79714446,-1.6073073065,-1.6658903511\C,0,1.7287531311,-2.2199381956,-2

 Normal termination of Gaussian 16 at Fri Sep 23 16:38:53 2022.
 Gaussian 16:  ES64L-G16RevC.01  3-Jul-2019

 --------------------------------------------------------------------
 # M062X/def2tzvp int=(grid=ultrafine) nmr=giao guess=read geom=check
 --------------------------------------------------------------------

 ---------
 SecN5.xyz
 ---------
 Structure from the checkpoint file:  "SecN5_clust-1.chk"
 Charge =  0 Multiplicity = 1

                         Standard orientation:
 ---------------------------------------------------------------------
 Center     Atomic      Atomic             Coordinates (Angstroms)
 Number     Number       Type             X           Y           Z
 ---------------------------------------------------------------------
      1          6           0        3.332780    2.264332   -1.076336
      2          7           0        2.020260    2.571559   -0.524086
      3          6           0        1.997734    2.638820    0.937989
      4          6           0        1.920695    1.294059    1.683453
      5          6           0        0.522782    0.668555    1.675398
      6          7           0        0.055403    0.211950    0.347709
      7          6           0        0.602748   -1.049532   -0.060542
      8          6           0        0.054736   -2.261582    0.391633
      9          6           0       -1.228576   -2.237311    1.174682
     10          6           0       -2.387433   -1.750697    0.294321
     11          6           0       -2.387687   -0.279426   -0.080421
     12          6           0       -1.273864    0.586521   -0.032422
     13          6           0       -1.453143    1.943068   -0.363465
     14          6           0       -2.690028    2.449934   -0.738480
     15          6           0       -3.788115    1.593102   -0.815947
     16          6           0       -3.620781    0.253100   -0.491617
     17          6           0        0.662176   -3.463102    0.018278
     18          6           0        1.805708   -3.473741   -0.780473
     19          6           0        2.345034   -2.269947   -1.229466
     20          6           0        1.741394   -1.064864   -0.869883
     21          1           0        4.018043    3.094778   -0.872436
     22          1           0        3.254229    2.161081   -2.163184
     23          1           0        3.805655    1.345081   -0.684646
     24          1           0        1.347851    1.869543   -0.821370
     25          1           0        2.893053    3.186498    1.255183
     26          1           0        1.140795    3.253541    1.247528
     27          1           0        2.650834    0.585018    1.276092
     28          1           0        2.197492    1.451141    2.734557
     29          1           0        0.501007   -0.172964    2.385497
     30          1           0       -0.201587    1.405562    2.034795
     31          1           0       -1.455911   -3.244112    1.538705
     32          1           0       -1.142416   -1.591344    2.055819
     33          1           0       -2.396501   -2.359156   -0.620316
     34          1           0       -3.334386   -1.960178    0.804793
     35          1           0       -0.589750    2.598717   -0.344671
     36          1           0       -2.789011    3.501789   -0.988318
     37          1           0       -4.762219    1.964586   -1.118215
     38          1           0       -4.477897   -0.414936   -0.531690
     39          1           0        0.230464   -4.400508    0.359248
     40          1           0        2.267376   -4.417366   -1.054623
     41          1           0        3.228983   -2.264736   -1.859584
     42          1           0        2.147299   -0.124333   -1.218739
 ---------------------------------------------------------------------

 SCF Done:  E(RM062X) =  -808.590251695     A.U. after    1 cycles

      1  C    Isotropic =   148.5347   Anisotropy =    53.4841

      2  N    Isotropic =   228.1101   Anisotropy =    55.6508

      3  C    Isotropic =   129.1643   Anisotropy =    35.1504

      4  C    Isotropic =   159.1362   Anisotropy =    21.1961

      5  C    Isotropic =   114.9016   Anisotropy =    53.1206

      6  N    Isotropic =   175.4647   Anisotropy =    35.2347

      7  C    Isotropic =    13.3793   Anisotropy =   176.8076

      8  C    Isotropic =    16.1728   Anisotropy =   224.0138

      9  C    Isotropic =   150.1377   Anisotropy =    19.2795

     10  C    Isotropic =   147.5751   Anisotropy =    24.5509

     11  C    Isotropic =    27.4461   Anisotropy =   206.2052

     12  C    Isotropic =    11.1033   Anisotropy =   183.8838

     13  C    Isotropic =    34.2446   Anisotropy =   185.6863

     14  C    Isotropic =    35.9317   Anisotropy =   209.8480

     15  C    Isotropic =    40.1484   Anisotropy =   204.1940

     16  C    Isotropic =    31.6462   Anisotropy =   189.9206

     17  C    Isotropic =    34.4598   Anisotropy =   185.7602

     18  C    Isotropic =    36.4172   Anisotropy =   212.5457

     19  C    Isotropic =    37.3983   Anisotropy =   208.4124

     20  C    Isotropic =    30.8574   Anisotropy =   193.3427

     21  H    Isotropic =    29.5954   Anisotropy =    10.4720

     22  H    Isotropic =    29.1837   Anisotropy =    10.0402

     23  H    Isotropic =    28.9107   Anisotropy =     7.8720

     24  H    Isotropic =    29.5562   Anisotropy =    14.8769

     25  H    Isotropic =    29.1923   Anisotropy =     8.1498

     26  H    Isotropic =    28.3141   Anisotropy =     6.4094

     27  H    Isotropic =    29.8305   Anisotropy =     2.7668

     28  H    Isotropic =    31.1477   Anisotropy =    11.2322

     29  H    Isotropic =    28.4019   Anisotropy =     5.6330

     30  H    Isotropic =    28.5326   Anisotropy =     4.9261

     31  H    Isotropic =    29.1496   Anisotropy =     9.4359

     32  H    Isotropic =    28.4144   Anisotropy =     2.8452

     33  H    Isotropic =    29.0428   Anisotropy =     6.4782

     34  H    Isotropic =    28.7665   Anisotropy =     9.7383

     35  H    Isotropic =    23.5085   Anisotropy =    10.6864

     36  H    Isotropic =    23.9108   Anisotropy =     6.7406

     37  H    Isotropic =    24.1495   Anisotropy =     5.1558

     38  H    Isotropic =    24.0830   Anisotropy =     9.3541

     39  H    Isotropic =    23.8566   Anisotropy =     8.1212

     40  H    Isotropic =    23.8962   Anisotropy =     5.3805

     41  H    Isotropic =    23.8399   Anisotropy =     7.0232

     42  H    Isotropic =    23.8536   Anisotropy =     7.9939

 The electronic state is 1-A.
 Alpha  occ. eigenvalues --  -14.75214 -14.72100 -10.57881 -10.57570 -10.56833
 Alpha  occ. eigenvalues --  -10.55332 -10.55116 -10.55018 -10.54786 -10.54526
 Alpha  occ. eigenvalues --  -10.54518 -10.54437 -10.54433 -10.54394 -10.54285
 Alpha  occ. eigenvalues --  -10.53792 -10.53721 -10.53574 -10.53430 -10.53010
 Alpha  occ. eigenvalues --   -1.05377  -1.00096  -0.96215  -0.94917  -0.90241
 Alpha  occ. eigenvalues --   -0.86826  -0.85429  -0.84892  -0.82098  -0.79860
 Alpha  occ. eigenvalues --   -0.76867  -0.73719  -0.72651  -0.69471  -0.68110
 Alpha  occ. eigenvalues --   -0.67461  -0.65882  -0.64401  -0.59161  -0.57961
 Alpha  occ. eigenvalues --   -0.56716  -0.55087  -0.54758  -0.54342  -0.53085
 Alpha  occ. eigenvalues --   -0.51201  -0.50756  -0.50644  -0.50034  -0.49059
 Alpha  occ. eigenvalues --   -0.48467  -0.48178  -0.46432  -0.45784  -0.44713
 Alpha  occ. eigenvalues --   -0.44661  -0.44008  -0.43125  -0.42234  -0.41737
 Alpha  occ. eigenvalues --   -0.41332  -0.40935  -0.40118  -0.39685  -0.39052
 Alpha  occ. eigenvalues --   -0.38694  -0.32396  -0.30739  -0.29896  -0.29589
 Alpha  occ. eigenvalues --   -0.28453  -0.26193
 Alpha virt. eigenvalues --    0.01198   0.01713   0.02410   0.02962   0.06816
 Alpha virt. eigenvalues --    0.07432   0.08086   0.08891   0.09461   0.10015
 Alpha virt. eigenvalues --    0.10576   0.11001   0.11647   0.12100   0.12500

 Mulliken charges:
               1
     1  C   -0.400064
     2  N   -0.349227
     3  C   -0.239592
     4  C   -0.301118
     5  C   -0.227927
     6  N   -0.268570
     7  C    0.170607
     8  C    0.056553
     9  C   -0.430775
    10  C   -0.313352
    11  C    0.059569
    12  C    0.208489
    13  C   -0.254133
    14  C   -0.179319
    15  C   -0.160465
    16  C   -0.176154
    17  C   -0.138773
    18  C   -0.148469
    19  C   -0.167913
    20  C   -0.259884
    21  H    0.148255
    22  H    0.155303
    23  H    0.137222
    24  H    0.232727
    25  H    0.157322
    26  H    0.160961
    27  H    0.179779
    28  H    0.142759
    29  H    0.146569
    30  H    0.191264
    31  H    0.155849
    32  H    0.182977
    33  H    0.173961
    34  H    0.152931
    35  H    0.182670
    36  H    0.144085
    37  H    0.140033
    38  H    0.136815
    39  H    0.137785
    40  H    0.142064
    41  H    0.142778
    42  H    0.176405
 Sum of Mulliken charges =  -0.00000

 Dipole moment (field-independent basis, Debye):
    X=             -0.0239    Y=             -1.6984    Z=              1.1722  Tot=              2.0638
 Quadrupole moment (field-independent basis, Debye-Ang):
   XX=           -113.9815   YY=           -117.8983   ZZ=           -122.0045
   XY=              0.8235   XZ=             -1.3445   YZ=              1.4590

 1\1\GINC-NOTCH167\SP\RM062X\def2TZVP\C18H22N2\U6032257\23-Sep-2022\0\\
 # M062X/def2tzvp int=(grid=ultrafine) nmr=giao guess=read geom=check\\
 SecN5.xyz\\0,1\C,0,0.819590621,-1.1682561774,3.8454324622\N,0,-0.19977
 99708,-1.5874159683,2.8929280445\C,0,-0.2234062317,-3.031246972,2.6531
 58924\C,0,0.8249235296,-3.5781216868,1.6672743995\C,0,0.481302187,-3.3
 13108588,0.198542401\N,0,0.5242862859,-1.8889945554,-0.2011347596\C,0,
 1.8479956142,-1.3903752674,-0.439384176\C,0,2.4979714446,-1.6073073065
 ,-1.6658903511\C,0,1.7287531311,-2.2199381956,-2.8032694675\C,0,0.6161

 Normal termination of Gaussian 16 at Fri Sep 23 16:44:44 2022.
