 Gaussian 16, Revision C.01,

 ----------------------------------------------------------------------
 # B3LYP/6-31G(d,p) empiricaldispersion=GD3BJ int=(grid=ultrafine) opt
 freq=noraman
 ----------------------------------------------------------------------

 ---------
 SecN5.xyz
 ---------
 Symbolic Z-matrix:
 Charge =  0 Multiplicity = 1

 SCF Done:  E(RB3LYP) =  -808.763576497     A.U. after   14 cycles
 SCF Done:  E(RB3LYP) =  -808.770715954     A.U. after   12 cycles
 SCF Done:  E(RB3LYP) =  -808.772176940     A.U. after   12 cycles
 SCF Done:  E(RB3LYP) =  -808.772774744     A.U. after   12 cycles
 SCF Done:  E(RB3LYP) =  -808.773095794     A.U. after   11 cycles
 SCF Done:  E(RB3LYP) =  -808.773222656     A.U. after   11 cycles
 SCF Done:  E(RB3LYP) =  -808.773275748     A.U. after   10 cycles
 SCF Done:  E(RB3LYP) =  -808.773299994     A.U. after   10 cycles
 SCF Done:  E(RB3LYP) =  -808.773306870     A.U. after    9 cycles
 SCF Done:  E(RB3LYP) =  -808.773308472     A.U. after    9 cycles
 SCF Done:  E(RB3LYP) =  -808.773311757     A.U. after    9 cycles
 SCF Done:  E(RB3LYP) =  -808.773313320     A.U. after    9 cycles
 SCF Done:  E(RB3LYP) =  -808.773316031     A.U. after   10 cycles
 SCF Done:  E(RB3LYP) =  -808.773318346     A.U. after    9 cycles
 SCF Done:  E(RB3LYP) =  -808.773318980     A.U. after    8 cycles
 SCF Done:  E(RB3LYP) =  -808.773319007     A.U. after    6 cycles
 SCF Done:  E(RB3LYP) =  -808.773319003     A.U. after    6 cycles
 Optimization completed.
    -- Stationary point found.
 Normal termination of Gaussian 16 at Fri Sep 23 16:19:43 2022.

 ----------------------------------------------------------------------
 #N Geom=AllCheck Guess=TCheck SCRF=Check GenChk RB3LYP/6-31G(d,p) Freq
 ----------------------------------------------------------------------

 Structure from the checkpoint file:  "SecN5_clust-3.chk"
 ---------
 SecN5.xyz
 ---------
 Charge =  0 Multiplicity = 1

 SCF Done:  E(RB3LYP) =  -808.773319003     A.U. after    1 cycles

                      1                      2                      3
                      A                      A                      A
 Frequencies --      9.7901                38.2703                41.3826
 Red. masses --      4.1556                 2.7311                 4.1404
 Frc consts  --      0.0002                 0.0024                 0.0042
 IR Inten    --      0.0485                 1.0527                 0.1572

                      4                      5                      6
                      A                      A                      A
 Frequencies --     66.5056                86.4570               100.7235
 Red. masses --      3.5119                 3.4895                 3.4353
 Frc consts  --      0.0092                 0.0154                 0.0205
 IR Inten    --      0.6138                 0.2401                 1.2016

                      7                      8                      9
                      A                      A                      A
 Frequencies --    140.0502               147.7754               172.4953
 Red. masses --      2.3224                 2.9874                 2.3760
 Frc consts  --      0.0268                 0.0384                 0.0417
 IR Inten    --      0.6437                 0.0548                 1.7687

                     10                     11                     12
                      A                      A                      A
 Frequencies --    192.1814               230.9473               257.5119
 Red. masses --      2.1748                 3.2464                 2.0629
 Frc consts  --      0.0473                 0.1020                 0.0806
 IR Inten    --      0.1855                 0.0671                 1.8685

                     13                     14                     15
                      A                      A                      A
 Frequencies --    274.5417               309.2331               324.3113
 Red. masses --      2.5789                 3.0961                 3.2883
 Frc consts  --      0.1145                 0.1744                 0.2038
 IR Inten    --      0.3897                 1.7012                 1.1657

                     16                     17                     18
                      A                      A                      A
 Frequencies --    343.9333               353.0520               371.7621
 Red. masses --      3.1141                 3.4296                 3.5304
 Frc consts  --      0.2170                 0.2519                 0.2875
 IR Inten    --      1.0708                 1.5968                 3.4427

                     19                     20                     21
                      A                      A                      A
 Frequencies --    390.1845               449.9858               476.1465
 Red. masses --      2.7727                 2.8017                 2.9862
 Frc consts  --      0.2487                 0.3342                 0.3989
 IR Inten    --      2.4016                 2.0551                 7.9056

                     22                     23                     24
                      A                      A                      A
 Frequencies --    482.6986               500.6109               530.5336
 Red. masses --      3.5949                 3.2473                 3.7138
 Frc consts  --      0.4935                 0.4795                 0.6159
 IR Inten    --      4.6106                20.1203                 2.6335

                     25                     26                     27
                      A                      A                      A
 Frequencies --    557.7767               571.3200               598.3058
 Red. masses --      3.7611                 4.2434                 3.1195
 Frc consts  --      0.6894                 0.8161                 0.6579
 IR Inten    --      0.6504                 1.5883                 1.0935

                     28                     29                     30
                      A                      A                      A
 Frequencies --    625.1151               636.9707               702.7958
 Red. masses --      4.9590                 4.7551                 4.7744
 Frc consts  --      1.1417                 1.1367                 1.3894
 IR Inten    --      3.4094                15.4318                 0.4874

                     31                     32                     33
                      A                      A                      A
 Frequencies --    729.7388               759.5999               763.6551
 Red. masses --      3.0243                 1.6850                 1.4199
 Frc consts  --      0.9489                 0.5728                 0.4879
 IR Inten    --      0.6839                24.4612                14.6972

                     34                     35                     36
                      A                      A                      A
 Frequencies --    770.4037               779.1236               788.4509
 Red. masses --      1.6782                 1.8272                 2.1335
 Frc consts  --      0.5869                 0.6535                 0.7814
 IR Inten    --      5.5908                31.2193                18.7395

                     37                     38                     39
                      A                      A                      A
 Frequencies --    788.7611               817.9328               854.2205
 Red. masses --      1.4794                 3.4806                 1.6222
 Frc consts  --      0.5423                 1.3719                 0.6974
 IR Inten    --     81.3120                 3.0526                 6.7168

                     40                     41                     42
                      A                      A                      A
 Frequencies --    862.6102               882.6441               920.6067
 Red. masses --      1.4688                 1.4264                 1.9129
 Frc consts  --      0.6439                 0.6547                 0.9552
 IR Inten    --      8.0912                 0.5738                 8.1914

                     43                     44                     45
                      A                      A                      A
 Frequencies --    936.9902               942.9310               946.9903
 Red. masses --      1.4034                 2.2903                 1.7547
 Frc consts  --      0.7259                 1.1998                 0.9271
 IR Inten    --      0.4649                 3.5380                 2.7261

                     46                     47                     48
                      A                      A                      A
 Frequencies --    951.1913               970.3038               976.6219
 Red. masses --      2.1485                 1.2458                 2.2290
 Frc consts  --      1.1453                 0.6911                 1.2526
 IR Inten    --      6.3960                 0.0832                 0.5831

                     49                     50                     51
                      A                      A                      A
 Frequencies --    982.0332              1020.9116              1045.7453
 Red. masses --      1.2574                 3.4981                 2.1271
 Frc consts  --      0.7144                 2.1481                 1.3705
 IR Inten    --      0.2850                 0.8402                 1.7271

                     52                     53                     54
                      A                      A                      A
 Frequencies --   1055.9822              1074.0267              1087.3394
 Red. masses --      2.5601                 2.6387                 2.7150
 Frc consts  --      1.6820                 1.7933                 1.8912
 IR Inten    --      2.0263                 1.5712                12.1243

                     55                     56                     57
                      A                      A                      A
 Frequencies --   1097.9111              1118.5624              1138.6243
 Red. masses --      2.3445                 1.6236                 1.8716
 Frc consts  --      1.6650                 1.1969                 1.4296
 IR Inten    --     12.2767                 7.7446                17.4119

                     58                     59                     60
                      A                      A                      A
 Frequencies --   1154.4712              1161.5341              1174.2401
 Red. masses --      1.8932                 1.6316                 2.4226
 Frc consts  --      1.4866                 1.2970                 1.9681
 IR Inten    --     19.0492                12.9386                26.1575

                     61                     62                     63
                      A                      A                      A
 Frequencies --   1189.1042              1189.4939              1191.9567
 Red. masses --      1.1917                 1.2184                 1.5160
 Frc consts  --      0.9927                 1.0157                 1.2690
 IR Inten    --      3.5721                 1.0621                12.2439

                     64                     65                     66
                      A                      A                      A
 Frequencies --   1196.2089              1213.8331              1233.1289
 Red. masses --      1.1931                 1.7875                 2.2612
 Frc consts  --      1.0059                 1.5518                 2.0258
 IR Inten    --      2.2915                 0.5568                 9.0191

                     67                     68                     69
                      A                      A                      A
 Frequencies --   1246.2861              1252.6326              1266.4115
 Red. masses --      1.4213                 1.4523                 2.5437
 Frc consts  --      1.3006                 1.3426                 2.4036
 IR Inten    --     19.3357                29.1808                56.1444

                     70                     71                     72
                      A                      A                      A
 Frequencies --   1295.8383              1302.7691              1320.2424
 Red. masses --      1.5719                 1.4182                 1.3753
 Frc consts  --      1.5552                 1.4182                 1.4124
 IR Inten    --     36.7213                11.8095                41.7229

                     73                     74                     75
                      A                      A                      A
 Frequencies --   1330.3146              1341.1825              1345.0928
 Red. masses --      1.6973                 1.1175                 6.2346
 Frc consts  --      1.7698                 1.1844                 6.6460
 IR Inten    --      5.3672                 3.9492                17.2701

                     76                     77                     78
                      A                      A                      A
 Frequencies --   1361.1826              1368.6218              1394.4825
 Red. masses --      3.3381                 1.6295                 1.4565
 Frc consts  --      3.6440                 1.7984                 1.6688
 IR Inten    --      1.9650                 4.3221                 4.5674

                     79                     80                     81
                      A                      A                      A
 Frequencies --   1407.5769              1414.2585              1423.9095
 Red. masses --      1.4793                 1.5418                 1.3919
 Frc consts  --      1.7268                 1.8169                 1.6627
 IR Inten    --     22.5807                42.0229                58.1091

                     82                     83                     84
                      A                      A                      A
 Frequencies --   1470.1477              1486.3516              1493.5003
 Red. masses --      1.1819                 1.7751                 1.2194
 Frc consts  --      1.5050                 2.3106                 1.6025
 IR Inten    --      0.6368                14.3321                15.1211

                     85                     86                     87
                      A                      A                      A
 Frequencies --   1494.6690              1496.3181              1499.5991
 Red. masses --      1.1240                 1.2259                 1.4069
 Frc consts  --      1.4795                 1.6171                 1.8641
 IR Inten    --      5.2698                 8.8707                22.2150

                     88                     89                     90
                      A                      A                      A
 Frequencies --   1502.7842              1504.7253              1513.6567
 Red. masses --      1.0739                 1.7962                 1.0932
 Frc consts  --      1.4289                 2.3962                 1.4758
 IR Inten    --      5.8429                20.4286                 1.1819

                     91                     92                     93
                      A                      A                      A
 Frequencies --   1527.3177              1534.4169              1537.3930
 Red. masses --      1.1512                 1.0932                 2.1589
 Frc consts  --      1.5822                 1.5165                 3.0064
 IR Inten    --     26.6875                15.6570               163.6660

                     94                     95                     96
                      A                      A                      A
 Frequencies --   1546.8134              1627.9208              1639.8235
 Red. masses --      2.5289                 6.0862                 6.5382
 Frc consts  --      3.5649                 9.5030                10.3586
 IR Inten    --     19.7445                14.8119                 6.2600

                     97                     98                     99
                      A                      A                      A
 Frequencies --   1655.3959              1663.8665              2903.6314
 Red. masses --      5.8265                 5.7707                 1.0725
 Frc consts  --      9.4072                 9.4127                 5.3277
 IR Inten    --     31.6156                13.5215                70.8246

                    100                    101                    102
                      A                      A                      A
 Frequencies --   2942.1583              3022.5602              3036.8427
 Red. masses --      1.0610                 1.0646                 1.0607
 Frc consts  --      5.4115                 5.7305                 5.7635
 IR Inten    --     84.8004                25.7598                24.6274

                    103                    104                    105
                      A                      A                      A
 Frequencies --   3046.5241              3052.2230              3067.7514
 Red. masses --      1.0633                 1.0862                 1.0953
 Frc consts  --      5.8145                 5.9622                 6.0733
 IR Inten    --     17.0607                28.1834                42.9151

                    106                    107                    108
                      A                      A                      A
 Frequencies --   3069.0919              3079.1264              3081.6984
 Red. masses --      1.0625                 1.0819                 1.0922
 Frc consts  --      5.8966                 6.0436                 6.1112
 IR Inten    --     16.6558                20.4450                37.2476

                    109                    110                    111
                      A                      A                      A
 Frequencies --   3096.9699              3116.5468              3122.9768
 Red. masses --      1.1037                 1.1047                 1.1034
 Frc consts  --      6.2371                 6.3217                 6.3404
 IR Inten    --     26.4591                37.3257                43.3400

                    112                    113                    114
                      A                      A                      A
 Frequencies --   3165.5635              3173.4185              3183.5337
 Red. masses --      1.0876                 1.0871                 1.0882
 Frc consts  --      6.4214                 6.4501                 6.4978
 IR Inten    --     13.8235                 8.2216                12.6002

                    115                    116                    117
                      A                      A                      A
 Frequencies --   3187.0641              3203.9525              3205.1729
 Red. masses --      1.0892                 1.0962                 1.0961
 Frc consts  --      6.5181                 6.6303                 6.6343
 IR Inten    --     12.9596                36.3240                29.0398

                    118                    119                    120
                      A                      A                      A
 Frequencies --   3235.0583              3237.4881              3529.3306
 Red. masses --      1.0908                 1.0918                 1.0747
 Frc consts  --      6.7259                 6.7425                 7.8869
 IR Inten    --      9.2705                 7.6571                 1.3028

 - Thermochemistry -
 -------------------
 Temperature   298.150 Kelvin.  Pressure   1.00000 Atm.
 Atom     1 has atomic number  6 and mass  12.00000

 Molecular mass:   266.17830 amu.
 Principal axes and moments of inertia in atomic units:
                           1         2         3
     Eigenvalues --  4631.160146578.96632**********
           X            0.99995  -0.00825  -0.00519
           Y            0.00826   0.99997   0.00123
           Z            0.00518  -0.00128   0.99999
 This molecule is an asymmetric top.
 Rotational symmetry number  1.
 Warning -- assumption of classical behavior for rotation
           may cause significant error
 Rotational temperatures (Kelvin)      0.01870     0.01317     0.00846
 Rotational constants (GHZ):           0.38970     0.27432     0.17622
 Zero-point vibrational energy     961650.7 (Joules/Mol)
                                  229.84002 (Kcal/Mol)
 Warning -- explicit consideration of  27 degrees of freedom as
           vibrations may cause significant error
 Vibrational temperatures:     14.09    55.06    59.54    95.69   124.39
          (Kelvin)            144.92   201.50   212.62   248.18   276.51
                              332.28   370.50   395.00   444.92   466.61
                              494.84   507.96   534.88   561.39   647.43
                              685.07   694.50   720.27   763.32   802.52
                              822.00   860.83   899.40   916.46  1011.17
                             1049.93  1092.89  1098.73  1108.44  1120.99
                             1134.40  1134.85  1176.82  1229.03  1241.10
                             1269.93  1324.55  1348.12  1356.67  1362.51
                             1368.55  1396.05  1405.14  1412.93  1468.86
                             1504.59  1519.32  1545.28  1564.44  1579.65
                             1609.36  1638.23  1661.03  1671.19  1689.47
                             1710.86  1711.42  1714.96  1721.08  1746.44
                             1774.20  1793.13  1802.26  1822.08  1864.42
                             1874.39  1899.53  1914.03  1929.66  1935.29
                             1958.44  1969.14  2006.35  2025.19  2034.80
                             2048.69  2115.21  2138.53  2148.81  2150.50
                             2152.87  2157.59  2162.17  2164.96  2177.81
                             2197.47  2207.68  2211.97  2225.52  2342.21
                             2359.34  2381.75  2393.93  4177.68  4233.11
                             4348.79  4369.34  4383.27  4391.47  4413.81
                             4415.74  4430.18  4433.88  4455.85  4484.02
                             4493.27  4554.54  4565.84  4580.39  4585.47
                             4609.77  4611.53  4654.53  4658.02  5077.92

 Zero-point correction=                           0.366273 (Hartree/Particle)
 Thermal correction to Energy=                    0.384062
 Thermal correction to Enthalpy=                  0.385006
 Thermal correction to Gibbs Free Energy=         0.318578
 Sum of electronic and zero-point Energies=           -808.407046
 Sum of electronic and thermal Energies=              -808.389257
 Sum of electronic and thermal Enthalpies=            -808.388313
 Sum of electronic and thermal Free Energies=         -808.454741

                     E (Thermal)             CV                S
                      KCal/Mol        Cal/Mol-Kelvin    Cal/Mol-Kelvin
 Total                  241.002             70.521            139.810
 Electronic               0.000              0.000              0.000
 Translational            0.889              2.981             42.636
 Rotational               0.889              2.981             34.100
 Vibrational            239.225             64.560             63.073
 Vibration     1          0.593              1.987              8.053
 Vibration     2          0.594              1.982              5.347
 Vibration     3          0.594              1.981              5.192
 Vibration     4          0.598              1.970              4.254
 Vibration     5          0.601              1.959              3.739
 Vibration     6          0.604              1.949              3.440
 Vibration     7          0.615              1.913              2.803
 Vibration     8          0.617              1.905              2.701
 Vibration     9          0.626              1.876              2.408
 Vibration    10          0.634              1.851              2.207
 Vibration    11          0.653              1.794              1.872
 Vibration    12          0.667              1.750              1.679
 Vibration    13          0.677              1.720              1.567
 Vibration    14          0.699              1.656              1.366
 Vibration    15          0.709              1.627              1.288
 Vibration    16          0.723              1.588              1.194
 Vibration    17          0.729              1.569              1.153
 Vibration    18          0.743              1.530              1.073
 Vibration    19          0.758              1.491              0.999
 Vibration    20          0.809              1.361              0.796
 Vibration    21          0.833              1.303              0.721
 Vibration    22          0.839              1.288              0.703
 Vibration    23          0.856              1.249              0.657
 Vibration    24          0.885              1.182              0.586
 Vibration    25          0.913              1.123              0.528
 Vibration    26          0.927              1.093              0.502
 Vibration    27          0.956              1.035              0.453

 Optimization completed.
    -- Stationary point found.
 Normal termination of Gaussian 16 at Fri Sep 23 16:22:21 2022.

 ----------------------------------------------------------------------
 # M062X/def2tzvp int=(grid=ultrafine) pop=nbo7 polar prop=efg volume g
 uess=read geom=check
 ----------------------------------------------------------------------

 ---------
 SecN5.xyz
 ---------
 Structure from the checkpoint file:  "SecN5_clust-3.chk"
 Charge =  0 Multiplicity = 1

 SCF Done:  E(RM062X) =  -808.590096165     A.U. after   11 cycles

  Exact polarizability:     250.464       9.528     260.208      -9.133       3.061     154.651
 Approx polarizability:     302.413       7.590     309.141     -12.812       5.751     218.336

 Summary of Natural Population Analysis:

                                     Natural Population
             Natural    ---------------------------------------------
  Atom No    Charge        Core      Valence    Rydberg      Total
 --------------------------------------------------------------------
    C  1   -0.41740      1.99999     4.40547    0.01193     6.41740
    N  2   -0.61880      1.99999     5.59243    0.02638     7.61880
    C  3   -0.21338      1.99999     4.19972    0.01367     6.21338
    C  4   -0.43464      1.99999     4.42219    0.01246     6.43464
    C  5   -0.20253      1.99999     4.18856    0.01397     6.20253
    N  6   -0.45425      1.99999     5.42959    0.02467     7.45425
    C  7    0.15607      1.99999     3.82590    0.01804     5.84393
    C  8   -0.02576      1.99999     4.00836    0.01740     6.02576
    C  9   -0.41566      1.99999     4.40398    0.01169     6.41566
    C 10   -0.40241      1.99999     4.39149    0.01093     6.40241
    C 11   -0.05971      1.99999     4.04349    0.01624     6.05971
    C 12    0.17943      1.99999     3.80350    0.01708     5.82057
    C 13   -0.25503      1.99999     4.23841    0.01663     6.25503
    C 14   -0.20184      1.99999     4.18529    0.01656     6.20184
    C 15   -0.24023      1.99999     4.22325    0.01698     6.24023
    C 16   -0.18656      1.99999     4.17053    0.01604     6.18656
    C 17   -0.20689      1.99999     4.19039    0.01651     6.20689
    C 18   -0.21458      1.99999     4.19818    0.01640     6.21458
    C 19   -0.21238      1.99999     4.19606    0.01633     6.21238
    C 20   -0.22305      1.99999     4.20696    0.01610     6.22305
    H 21    0.20331      0.00000     0.79565    0.00104     0.79669
    H 22    0.19139      0.00000     0.80726    0.00135     0.80861
    H 23    0.16194      0.00000     0.83524    0.00282     0.83806
    H 24    0.35368      0.00000     0.64425    0.00207     0.64632
    H 25    0.19483      0.00000     0.80340    0.00177     0.80517
    H 26    0.15555      0.00000     0.84118    0.00327     0.84445
    H 27    0.20317      0.00000     0.79509    0.00173     0.79683
    H 28    0.21376      0.00000     0.78428    0.00196     0.78624
    H 29    0.20506      0.00000     0.79278    0.00215     0.79494
    H 30    0.20494      0.00000     0.79275    0.00231     0.79506
    H 31    0.21357      0.00000     0.78496    0.00147     0.78643
    H 32    0.21987      0.00000     0.77832    0.00182     0.78013
    H 33    0.21435      0.00000     0.78364    0.00201     0.78565
    H 34    0.21400      0.00000     0.78440    0.00160     0.78600
    H 35    0.20900      0.00000     0.78898    0.00202     0.79100
    H 36    0.21204      0.00000     0.78677    0.00120     0.78796
    H 37    0.21386      0.00000     0.78499    0.00116     0.78614
    H 38    0.20611      0.00000     0.79252    0.00136     0.79389
    H 39    0.21035      0.00000     0.78823    0.00142     0.78965
    H 40    0.21456      0.00000     0.78430    0.00114     0.78544
    H 41    0.21493      0.00000     0.78390    0.00117     0.78507
    H 42    0.21933      0.00000     0.77930    0.00137     0.78067
 ====================================================================
 * Total *  0.00000     39.99984   103.63594    0.36421   144.00000

 1\1\GINC-NOTCH288\SP\RM062X\def2TZVP\C18H22N2\U6032257\23-Sep-2022\0\\
 # M062X/def2tzvp int=(grid=ultrafine) pop=nbo7 polar prop=efg volume g
 uess=read geom=check\\SecN5.xyz\\0,1\C,0,-1.1697593199,-1.8183203642,4
 .4835739184\N,0,-0.2963705777,-2.9389183418,4.1531958238\C,0,-0.303922
 842,-3.2897313998,2.7359170605\C,0,0.4442778039,-2.2650711957,1.879899
 831\C,0,0.5715386723,-2.7531602302,0.4222610978\N,0,0.7655651478,-1.74
 67722238,-0.6237844801\C,0,2.0929674168,-1.2743192701,-0.829006777\C,0
 ,2.7067633555,-1.4191948355,-2.0843888926\C,0,1.8889224453,-1.93026965

 Normal termination of Gaussian 16 at Fri Sep 23 16:30:21 2022.
 Gaussian 16:  ES64L-G16RevC.01  3-Jul-2019

 --------------------------------------------------------------------
 # M062X/def2tzvp int=(grid=ultrafine) nmr=giao guess=read geom=check
 --------------------------------------------------------------------

 ---------
 SecN5.xyz
 ---------
 Structure from the checkpoint file:  "SecN5_clust-3.chk"
 Charge =  0 Multiplicity = 1

                         Standard orientation:
 ---------------------------------------------------------------------
 Center     Atomic      Atomic             Coordinates (Angstroms)
 Number     Number       Type             X           Y           Z
 ---------------------------------------------------------------------
      1          6           0        5.162389   -0.316346   -0.855523
      2          7           0        4.775678   -1.096178    0.314953
      3          6           0        3.608566   -0.565247    1.013356
      4          6           0        2.309500   -0.807994    0.241348
      5          6           0        1.083787   -0.398049    1.083196
      6          7           0       -0.153240   -0.061488    0.375266
      7          6           0       -0.984856   -1.145480   -0.025611
      8          6           0       -2.309862   -1.225274    0.434511
      9          6           0       -2.872688   -0.076269    1.217394
     10          6           0       -2.997046    1.161426    0.316120
     11          6           0       -1.695762    1.863141   -0.031288
     12          6           0       -0.401928    1.285847    0.028310
     13          6           0        0.707966    2.118043   -0.232388
     14          6           0        0.565602    3.459186   -0.564629
     15          6           0       -0.705544    4.018740   -0.663583
     16          6           0       -1.805275    3.212796   -0.392439
     17          6           0       -3.091037   -2.327116    0.078804
     18          6           0       -2.571819   -3.358898   -0.701943
     19          6           0       -1.257391   -3.277372   -1.157964
     20          6           0       -0.473356   -2.172399   -0.830123
     21          1           0        6.116255   -0.687474   -1.240553
     22          1           0        4.421263   -0.437606   -1.651487
     23          1           0        5.265603    0.767514   -0.660613
     24          1           0        5.557892   -1.124615    0.962383
     25          1           0        3.541740   -1.070809    1.984839
     26          1           0        3.697447    0.519650    1.226427
     27          1           0        2.313459   -0.247505   -0.698413
     28          1           0        2.263764   -1.868278   -0.021762
     29          1           0        0.849509   -1.206995    1.784758
     30          1           0        1.344361    0.475522    1.690613
     31          1           0       -3.860307   -0.340060    1.608033
     32          1           0       -2.229806    0.157632    2.073982
     33          1           0       -3.518491    0.860132   -0.602472
     34          1           0       -3.645390    1.898302    0.803618
     35          1           0        1.704936    1.699969   -0.192769
     36          1           0        1.451177    4.056911   -0.759200
     37          1           0       -0.839336    5.062162   -0.929646
     38          1           0       -2.802054    3.645740   -0.431682
     39          1           0       -4.117569   -2.377734    0.432315
     40          1           0       -3.190317   -4.213805   -0.956956
     41          1           0       -0.843166   -4.063575   -1.781709
     42          1           0        0.534498   -2.093817   -1.216515
 ---------------------------------------------------------------------

 SCF Done:  E(RM062X) =  -808.590096165     A.U. after    1 cycles

      1  C    Isotropic =   148.8340   Anisotropy =    54.1410

      2  N    Isotropic =   221.3748   Anisotropy =    67.5306

      3  C    Isotropic =   132.4292   Anisotropy =    58.4569

      4  C    Isotropic =   149.4850   Anisotropy =    32.9450

      5  C    Isotropic =   126.8256   Anisotropy =    63.8168

      6  N    Isotropic =   166.7104   Anisotropy =    60.5680

      7  C    Isotropic =    12.4975   Anisotropy =   172.7607

      8  C    Isotropic =    18.8031   Anisotropy =   221.2098

      9  C    Isotropic =   150.1745   Anisotropy =    22.1684

     10  C    Isotropic =   145.8680   Anisotropy =    27.0368

     11  C    Isotropic =    35.7307   Anisotropy =   197.3576

     12  C    Isotropic =    14.2813   Anisotropy =   178.9161

     13  C    Isotropic =    47.8554   Anisotropy =   180.6669

     14  C    Isotropic =    37.6278   Anisotropy =   207.3384

     15  C    Isotropic =    46.2017   Anisotropy =   197.0729

     16  C    Isotropic =    30.5607   Anisotropy =   188.3115

     17  C    Isotropic =    36.0720   Anisotropy =   183.0249

     18  C    Isotropic =    38.4275   Anisotropy =   207.9013

     19  C    Isotropic =    37.6175   Anisotropy =   209.1279

     20  C    Isotropic =    37.4256   Anisotropy =   192.5968

     21  H    Isotropic =    29.1879   Anisotropy =     9.9264

     22  H    Isotropic =    29.1300   Anisotropy =     6.1584

     23  H    Isotropic =    29.6469   Anisotropy =     9.0165

     24  H    Isotropic =    31.4466   Anisotropy =    15.6460

     25  H    Isotropic =    29.2185   Anisotropy =     4.8836

     26  H    Isotropic =    29.2309   Anisotropy =     4.9348

     27  H    Isotropic =    29.0881   Anisotropy =     5.1733

     28  H    Isotropic =    29.7327   Anisotropy =     6.1998

     29  H    Isotropic =    28.4825   Anisotropy =     5.1924

     30  H    Isotropic =    28.5216   Anisotropy =     5.8494

     31  H    Isotropic =    29.1912   Anisotropy =     9.2272

     32  H    Isotropic =    28.3501   Anisotropy =     3.1475

     33  H    Isotropic =    28.9841   Anisotropy =     6.1108

     34  H    Isotropic =    28.7465   Anisotropy =     9.3392

     35  H    Isotropic =    24.1146   Anisotropy =    10.7772

     36  H    Isotropic =    24.0111   Anisotropy =     6.8922

     37  H    Isotropic =    24.4582   Anisotropy =     4.8790

     38  H    Isotropic =    24.1035   Anisotropy =     9.2672

     39  H    Isotropic =    23.9727   Anisotropy =     8.0292

     40  H    Isotropic =    24.0394   Anisotropy =     5.3044

     41  H    Isotropic =    23.9274   Anisotropy =     6.6261

     42  H    Isotropic =    23.5866   Anisotropy =    10.7857

 The electronic state is 1-A.
 Alpha  occ. eigenvalues --  -14.75946 -14.73422 -10.58263 -10.57656 -10.57102
 Alpha  occ. eigenvalues --  -10.56257 -10.55351 -10.54538 -10.54433 -10.54021
 Alpha  occ. eigenvalues --  -10.53990 -10.53965 -10.53897 -10.53871 -10.53788
 Alpha  occ. eigenvalues --  -10.53480 -10.53366 -10.53225 -10.53146 -10.52855
 Alpha  occ. eigenvalues --   -1.05902  -1.01187  -0.95900  -0.94671  -0.89879
 Alpha  occ. eigenvalues --   -0.87240  -0.85018  -0.84762  -0.81882  -0.79929
 Alpha  occ. eigenvalues --   -0.77243  -0.73468  -0.73133  -0.68948  -0.67726
 Alpha  occ. eigenvalues --   -0.67275  -0.65914  -0.64262  -0.59315  -0.58074
 Alpha  occ. eigenvalues --   -0.56569  -0.55512  -0.54496  -0.54133  -0.53671
 Alpha  occ. eigenvalues --   -0.52583  -0.50769  -0.50024  -0.49707  -0.49059
 Alpha  occ. eigenvalues --   -0.48171  -0.47668  -0.46756  -0.45752  -0.45131
 Alpha  occ. eigenvalues --   -0.44806  -0.44094  -0.43252  -0.42314  -0.41895
 Alpha  occ. eigenvalues --   -0.41245  -0.40499  -0.39394  -0.39171  -0.38912
 Alpha  occ. eigenvalues --   -0.38395  -0.34569  -0.30309  -0.29634  -0.29466
 Alpha  occ. eigenvalues --   -0.29142  -0.24411
 Alpha virt. eigenvalues --    0.01589   0.02399   0.02885   0.03900   0.05969
 Alpha virt. eigenvalues --    0.07304   0.07811   0.08472   0.08846   0.09540
 Alpha virt. eigenvalues --    0.09709   0.11199   0.11476   0.12171   0.12532

 Mulliken charges:
               1
     1  C   -0.334676
     2  N   -0.353046
     3  C   -0.237372
     4  C   -0.335754
     5  C   -0.324861
     6  N   -0.178933
     7  C    0.072121
     8  C    0.082750
     9  C   -0.392874
    10  C   -0.311631
    11  C    0.063667
    12  C    0.167204
    13  C   -0.198278
    14  C   -0.186679
    15  C   -0.168044
    16  C   -0.190426
    17  C   -0.144991
    18  C   -0.151921
    19  C   -0.162714
    20  C   -0.190049
    21  H    0.144018
    22  H    0.148002
    23  H    0.125832
    24  H    0.210012
    25  H    0.145079
    26  H    0.152581
    27  H    0.188390
    28  H    0.153018
    29  H    0.183604
    30  H    0.196816
    31  H    0.151287
    32  H    0.177645
    33  H    0.171837
    34  H    0.148982
    35  H    0.158538
    36  H    0.137175
    37  H    0.137195
    38  H    0.135519
    39  H    0.137202
    40  H    0.140785
    41  H    0.141770
    42  H    0.191222
 Sum of Mulliken charges =  -0.00000

 Dipole moment (field-independent basis, Debye):
    X=              0.6875    Y=              0.0676    Z=              0.8920  Tot=              1.1282
 Quadrupole moment (field-independent basis, Debye-Ang):
   XX=           -105.4984   YY=           -121.3450   ZZ=           -122.6051
   XY=              3.3948   XZ=              0.1812   YZ=              0.6531

 1\1\GINC-NOTCH288\SP\RM062X\def2TZVP\C18H22N2\U6032257\23-Sep-2022\0\\
 # M062X/def2tzvp int=(grid=ultrafine) nmr=giao guess=read geom=check\\
 SecN5.xyz\\0,1\C,0,-1.1697593199,-1.8183203642,4.4835739184\N,0,-0.296
 3705777,-2.9389183418,4.1531958238\C,0,-0.303922842,-3.2897313998,2.73
 59170605\C,0,0.4442778039,-2.2650711957,1.879899831\C,0,0.5715386723,-
 2.7531602302,0.4222610978\N,0,0.7655651478,-1.7467722238,-0.6237844801
 \C,0,2.0929674168,-1.2743192701,-0.829006777\C,0,2.7067633555,-1.41919
 48355,-2.0843888926\C,0,1.8889224453,-1.9302696544,-3.233227383\C,0,0.

 Normal termination of Gaussian 16 at Fri Sep 23 16:33:44 2022.
