 Gaussian 16, Revision C.01,

 ----------------------------------------------------------------------
 # B3LYP/6-31G(d,p) empiricaldispersion=GD3BJ int=(grid=ultrafine) opt
 freq=noraman
 ----------------------------------------------------------------------

 ---------
 SecN3.xyz
 ---------
 Symbolic Z-matrix:
 Charge =  0 Multiplicity = 1

 SCF Done:  E(RB3LYP) =  -212.609975478     A.U. after   11 cycles
 SCF Done:  E(RB3LYP) =  -212.613821061     A.U. after   10 cycles
 SCF Done:  E(RB3LYP) =  -212.613933510     A.U. after    8 cycles
 SCF Done:  E(RB3LYP) =  -212.613942148     A.U. after    7 cycles
 Optimization completed.
    -- Stationary point found.
 Normal termination of Gaussian 16 at Fri Sep 23 15:28:02 2022.

 ----------------------------------------------------------------------
 #N Geom=AllCheck Guess=TCheck SCRF=Check GenChk RB3LYP/6-31G(d,p) Freq
 ----------------------------------------------------------------------

 Structure from the checkpoint file:  "SecN3_conf-1.chk"
 ---------
 SecN3.xyz
 ---------
 Charge =  0 Multiplicity = 1

 SCF Done:  E(RB3LYP) =  -212.613942148     A.U. after    1 cycles

                      1                      2                      3
                      A                      A                      A
 Frequencies --     36.1634               290.7446               622.7699
 Red. masses --      1.5600                 1.7256                 1.8495
 Frc consts  --      0.0012                 0.0859                 0.4226
 IR Inten    --      0.0683                 7.3819                 0.7893

                      4                      5                      6
                      A                      A                      A
 Frequencies --    640.2946               800.2715               851.7774
 Red. masses --      2.3609                 1.3537                 1.7653
 Frc consts  --      0.5703                 0.5108                 0.7546
 IR Inten    --      1.3020                 1.6649               116.6097

                      7                      8                      9
                      A                      A                      A
 Frequencies --    853.5449               891.7019               919.4104
 Red. masses --      1.6502                 3.2624                 2.4553
 Frc consts  --      0.7083                 1.5284                 1.2229
 IR Inten    --      1.0700                 9.4079                 0.1093

                     10                     11                     12
                      A                      A                      A
 Frequencies --    941.8426               990.2776              1048.3461
 Red. masses --      2.6440                 1.5346                 1.6832
 Frc consts  --      1.3819                 0.8867                 1.0899
 IR Inten    --     13.7411                16.7438                 0.3595

                     13                     14                     15
                      A                      A                      A
 Frequencies --   1059.2881              1109.3064              1220.4220
 Red. masses --      1.3371                 5.4181                 1.3348
 Frc consts  --      0.8839                 3.9282                 1.1714
 IR Inten    --      1.2606                22.3111                 6.2502

                     16                     17                     18
                      A                      A                      A
 Frequencies --   1220.7146              1260.1405              1287.4578
 Red. masses --      1.3286                 1.1376                 1.4464
 Frc consts  --      1.1665                 1.0643                 1.4125
 IR Inten    --      0.0290                 2.4659                 0.2800

                     19                     20                     21
                      A                      A                      A
 Frequencies --   1314.4970              1344.4831              1346.8388
 Red. masses --      1.3528                 1.2181                 1.2826
 Frc consts  --      1.3772                 1.2973                 1.3708
 IR Inten    --      0.2860                 1.1451                 0.3441

                     22                     23                     24
                      A                      A                      A
 Frequencies --   1380.5432              1469.7739              1500.6824
 Red. masses --      1.3501                 1.1484                 1.0814
 Frc consts  --      1.5160                 1.4617                 1.4348
 IR Inten    --      5.9347                 6.1356                 0.0459

                     25                     26                     27
                      A                      A                      A
 Frequencies --   1510.5212              1513.5824              1531.3048
 Red. masses --      1.0821                 1.0923                 1.1026
 Frc consts  --      1.4547                 1.4743                 1.5233
 IR Inten    --      0.4594                 2.1812                 0.4594

                     28                     29                     30
                      A                      A                      A
 Frequencies --   3036.2248              3040.6544              3055.1007
 Red. masses --      1.0679                 1.0692                 1.0619
 Frc consts  --      5.8001                 5.8242                 5.8396
 IR Inten    --     38.6868                55.0360                22.9524

                     31                     32                     33
                      A                      A                      A
 Frequencies --   3067.2104              3093.0313              3106.4236
 Red. masses --      1.0633                 1.1012                 1.0975
 Frc consts  --      5.8938                 6.2069                 6.2400
 IR Inten    --     42.4989                21.7327                 0.4791

                     34                     35                     36
                      A                      A                      A
 Frequencies --   3111.7295              3120.0289              3481.2572
 Red. masses --      1.1015                 1.1058                 1.0742
 Frc consts  --      6.2842                 6.3422                 7.6702
 IR Inten    --     28.5725                86.5056                 2.3999

 - Thermochemistry -
 -------------------
 Temperature   298.150 Kelvin.  Pressure   1.00000 Atm.
 Atom     1 has atomic number  6 and mass  12.00000

 Molecular mass:    71.07350 amu.
 Principal axes and moments of inertia in atomic units:
                           1         2         3
     Eigenvalues --   263.75616 271.25665 465.74226
           X            0.00000   1.00000   0.00000
           Y            1.00000  -0.00000   0.00205
           Z           -0.00205  -0.00000   1.00000
 This molecule is an asymmetric top.
 Rotational symmetry number  1.
 Rotational temperatures (Kelvin)      0.32839     0.31931     0.18597
 Rotational constants (GHZ):           6.84246     6.65326     3.87498
 Zero-point vibrational energy     341344.6 (Joules/Mol)
                                   81.58332 (Kcal/Mol)
 Warning -- explicit consideration of   2 degrees of freedom as
           vibrations may cause significant error
 Vibrational temperatures:     52.03   418.32   896.03   921.24  1151.41
          (Kelvin)           1225.52  1228.06  1282.96  1322.83  1355.10
                             1424.79  1508.34  1524.08  1596.04  1755.92
                             1756.34  1813.06  1852.36  1891.27  1934.41
                             1937.80  1986.29  2114.68  2159.15  2173.30
                             2177.71  2203.21  4368.45  4374.82  4395.61
                             4413.03  4450.18  4469.45  4477.08  4489.03
                             5008.75

 Zero-point correction=                           0.130011 (Hartree/Particle)
 Thermal correction to Energy=                    0.135025
 Thermal correction to Enthalpy=                  0.135970
 Thermal correction to Gibbs Free Energy=         0.101300
 Sum of electronic and zero-point Energies=           -212.483931
 Sum of electronic and thermal Energies=              -212.478917
 Sum of electronic and thermal Enthalpies=            -212.477973
 Sum of electronic and thermal Free Energies=         -212.512642

                     E (Thermal)             CV                S
                      KCal/Mol        Cal/Mol-Kelvin    Cal/Mol-Kelvin
 Total                   84.730             17.672             72.969
 Electronic               0.000              0.000              0.000
 Translational            0.889              2.981             38.700
 Rotational               0.889              2.981             25.014
 Vibrational             82.952             11.711              9.255
 Vibration     1          0.594              1.982              5.459
 Vibration     2          0.687              1.691              1.470

                           ! Non-Optimized Parameters !
 Normal termination of Gaussian 16 at Fri Sep 23 15:28:13 2022.

 ----------------------------------------------------------------------
 # M062X/def2tzvp int=(grid=ultrafine) pop=nbo7 polar prop=efg volume g
 uess=read geom=check
 ----------------------------------------------------------------------

 ---------
 SecN3.xyz
 ---------
 Structure from the checkpoint file:  "SecN3_conf-1.chk"
 Charge =  0 Multiplicity = 1

 SCF Done:  E(RM062X) =  -212.556203086     A.U. after   11 cycles

  Exact polarizability:      56.979      -0.000      54.334      -0.000       0.376      48.836
 Approx polarizability:      63.808      -0.000      61.550      -0.000       1.200      62.106

 Summary of Natural Population Analysis:

                                     Natural Population
             Natural    ---------------------------------------------
  Atom No    Charge        Core      Valence    Rydberg      Total
 --------------------------------------------------------------------
    C  1   -0.43087      1.99999     4.42145    0.00943     6.43087
    C  2   -0.43087      1.99999     4.42145    0.00943     6.43087
    C  3   -0.23145      1.99999     4.21855    0.01290     6.23145
    N  4   -0.60432      1.99999     5.57779    0.02654     7.60432
    C  5   -0.23145      1.99999     4.21855    0.01290     6.23145
    H  6    0.20907      0.00000     0.78958    0.00135     0.79093
    H  7    0.20096      0.00000     0.79764    0.00141     0.79904
    H  8    0.20907      0.00000     0.78958    0.00135     0.79093
    H  9    0.20096      0.00000     0.79764    0.00141     0.79904
    H 10    0.18262      0.00000     0.81519    0.00218     0.81738
    H 11    0.20128      0.00000     0.79738    0.00134     0.79872
    H 12    0.34111      0.00000     0.65646    0.00243     0.65889
    H 13    0.18262      0.00000     0.81519    0.00218     0.81738
    H 14    0.20128      0.00000     0.79738    0.00134     0.79872
 ====================================================================
 * Total *  0.00000      9.99996    29.91383    0.08620    40.00000

 Normal termination of Gaussian 16 at Fri Sep 23 15:28:36 2022.
 Gaussian 16:  ES64L-G16RevC.01  3-Jul-2019

 --------------------------------------------------------------------
 # M062X/def2tzvp int=(grid=ultrafine) nmr=giao guess=read geom=check
 --------------------------------------------------------------------

 ---------
 SecN3.xyz
 ---------
 Structure from the checkpoint file:  "SecN3_conf-1.chk"
 Charge =  0 Multiplicity = 1

                         Standard orientation:
 ---------------------------------------------------------------------
 Center     Atomic      Atomic             Coordinates (Angstroms)
 Number     Number       Type             X           Y           Z
 ---------------------------------------------------------------------
      1          6           0       -0.776763    1.029007   -0.070614
      2          6           0        0.776767    1.029002   -0.070623
      3          6           0        1.154512   -0.453597    0.194581
      4          7           0       -0.000000   -1.271714   -0.203537
      5          6           0       -1.154516   -0.453595    0.194574
      6          1           0       -1.195901    1.699341    0.685469
      7          1           0       -1.163496    1.357050   -1.040841
      8          1           0        1.195919    1.699347    0.685444
      9          1           0        1.163491    1.357027   -1.040860
     10          1           0        1.327918   -0.609381    1.266980
     11          1           0        2.056460   -0.775524   -0.332693
     12          1           0        0.000002   -1.345876   -1.220499
     13          1           0       -1.327934   -0.609387    1.266970
     14          1           0       -2.056457   -0.775514   -0.332714
 ---------------------------------------------------------------------

 SCF Done:  E(RM062X) =  -212.556203086     A.U. after    1 cycles

      1  C    Isotropic =   157.9633   Anisotropy =    30.5801

      2  C    Isotropic =   157.9631   Anisotropy =    30.5804

      3  C    Isotropic =   132.5812   Anisotropy =    57.2504

      4  N    Isotropic =   195.2340   Anisotropy =    37.6151

      5  C    Isotropic =   132.5812   Anisotropy =    57.2509

      6  H    Isotropic =    30.2253   Anisotropy =    10.2088

      7  H    Isotropic =    30.4652   Anisotropy =    10.5053

      8  H    Isotropic =    30.2253   Anisotropy =    10.2088

      9  H    Isotropic =    30.4653   Anisotropy =    10.5053

     10  H    Isotropic =    29.4340   Anisotropy =    10.2888

     11  H    Isotropic =    28.8048   Anisotropy =     8.9539

     12  H    Isotropic =    31.5362   Anisotropy =    14.3621

     13  H    Isotropic =    29.4339   Anisotropy =    10.2887

     14  H    Isotropic =    28.8048   Anisotropy =     8.9539

 The electronic state is 1-A.
 Alpha  occ. eigenvalues --  -14.72702 -10.55263 -10.55262 -10.52928 -10.52895
 Alpha  occ. eigenvalues --   -1.01942  -0.84794  -0.80856  -0.68146  -0.65486
 Alpha  occ. eigenvalues --   -0.57433  -0.53648  -0.49558  -0.49222  -0.43001
 Alpha  occ. eigenvalues --   -0.41083  -0.39839  -0.39739  -0.37805  -0.29612
 Alpha virt. eigenvalues --    0.05754   0.09147   0.10517   0.10853   0.12744
 Alpha virt. eigenvalues --    0.14008   0.14920   0.14983   0.18683   0.19046
 Alpha virt. eigenvalues --    0.20255   0.20655   0.22889   0.25579   0.26268

 Mulliken charges:
               1
     1  C   -0.269070
     2  C   -0.269073
     3  C   -0.201822
     4  N   -0.338592
     5  C   -0.201823
     6  H    0.131225
     7  H    0.132315
     8  H    0.131225
     9  H    0.132316
    10  H    0.134104
    11  H    0.137865
    12  H    0.209360
    13  H    0.134103
    14  H    0.137865
 Sum of Mulliken charges =  -0.00000

 Dipole moment (field-independent basis, Debye):
    X=              0.0000    Y=              1.2123    Z=             -0.6409  Tot=              1.3713
 Quadrupole moment (field-independent basis, Debye-Ang):
   XX=            -31.5300   YY=            -37.1214   ZZ=            -30.4564
   XY=             -0.0000   XZ=              0.0000   YZ=              1.4981

 Normal termination of Gaussian 16 at Fri Sep 23 15:28:44 2022.
