 Gaussian 16, Revision C.01,

 ----------------------------------------------------------------------
 # B3LYP/6-31G(d,p) empiricaldispersion=GD3BJ int=(grid=ultrafine) opt
 freq=noraman
 ----------------------------------------------------------------------

 ---------
 SecN5.xyz
 ---------
 Symbolic Z-matrix:
 Charge =  0 Multiplicity = 1

 SCF Done:  E(RB3LYP) =  -808.770623490     A.U. after   14 cycles
 SCF Done:  E(RB3LYP) =  -808.775984660     A.U. after   12 cycles
 SCF Done:  E(RB3LYP) =  -808.776760794     A.U. after   11 cycles
 SCF Done:  E(RB3LYP) =  -808.777331567     A.U. after   12 cycles
 SCF Done:  E(RB3LYP) =  -808.777824500     A.U. after   12 cycles
 SCF Done:  E(RB3LYP) =  -808.778062989     A.U. after   11 cycles
 SCF Done:  E(RB3LYP) =  -808.778232661     A.U. after   10 cycles
 SCF Done:  E(RB3LYP) =  -808.778279730     A.U. after   10 cycles
 SCF Done:  E(RB3LYP) =  -808.778292557     A.U. after    9 cycles
 SCF Done:  E(RB3LYP) =  -808.778294522     A.U. after    8 cycles
 SCF Done:  E(RB3LYP) =  -808.778294796     A.U. after    8 cycles
 Optimization completed.
    -- Stationary point found.
 Normal termination of Gaussian 16 at Fri Sep 23 16:17:23 2022.

 ----------------------------------------------------------------------
 #N Geom=AllCheck Guess=TCheck SCRF=Check GenChk RB3LYP/6-31G(d,p) Freq
 ----------------------------------------------------------------------

 Structure from the checkpoint file:  "SecN5_clust-12.chk"
 ---------
 SecN5.xyz
 ---------
 Charge =  0 Multiplicity = 1

 SCF Done:  E(RB3LYP) =  -808.778294796     A.U. after    1 cycles

                      1                      2                      3
                      A                      A                      A
 Frequencies --     28.0343                35.6630                44.4696
 Red. masses --      4.2599                 3.1320                 3.6696
 Frc consts  --      0.0020                 0.0023                 0.0043
 IR Inten    --      0.0747                 0.3166                 0.4452

                      4                      5                      6
                      A                      A                      A
 Frequencies --     62.2089                91.3890               119.2083
 Red. masses --      3.3733                 3.4568                 2.5588
 Frc consts  --      0.0077                 0.0170                 0.0214
 IR Inten    --      0.2677                 0.6058                 0.6820

                      7                      8                      9
                      A                      A                      A
 Frequencies --    127.5124               147.6071               167.7005
 Red. masses --      2.8017                 3.2750                 3.1035
 Frc consts  --      0.0268                 0.0420                 0.0514
 IR Inten    --      0.3845                 0.0095                 3.5007

                     10                     11                     12
                      A                      A                      A
 Frequencies --    207.0231               217.0011               269.8836
 Red. masses --      1.9082                 1.8403                 3.8523
 Frc consts  --      0.0482                 0.0511                 0.1653
 IR Inten    --      0.2290                 0.2846                 1.0571

                     13                     14                     15
                      A                      A                      A
 Frequencies --    298.3361               308.1509               324.8580
 Red. masses --      2.3064                 3.0124                 3.3421
 Frc consts  --      0.1209                 0.1685                 0.2078
 IR Inten    --      1.1309                 1.7529                 0.8563

                     16                     17                     18
                      A                      A                      A
 Frequencies --    338.3798               366.2720               388.5590
 Red. masses --      2.5326                 3.1563                 3.1914
 Frc consts  --      0.1709                 0.2495                 0.2839
 IR Inten    --      3.1378                 0.7720                 3.2331

                     19                     20                     21
                      A                      A                      A
 Frequencies --    428.7292               449.8752               466.2560
 Red. masses --      3.5997                 2.8604                 3.8692
 Frc consts  --      0.3898                 0.3411                 0.4956
 IR Inten    --      9.0468                 3.6614                 1.4122

                     22                     23                     24
                      A                      A                      A
 Frequencies --    474.3829               505.0424               536.7550
 Red. masses --      2.9679                 3.4484                 3.4088
 Frc consts  --      0.3935                 0.5182                 0.5786
 IR Inten    --      1.6216                 9.5597                 5.9343

                     25                     26                     27
                      A                      A                      A
 Frequencies --    560.4055               577.8600               592.8608
 Red. masses --      3.8314                 4.5782                 3.5568
 Frc consts  --      0.7089                 0.9007                 0.7366
 IR Inten    --      1.8330                 0.4968                 4.0915

                     28                     29                     30
                      A                      A                      A
 Frequencies --    608.5836               641.6345               697.6715
 Red. masses --      2.9774                 5.3334                 4.7650
 Frc consts  --      0.6497                 1.2937                 1.3665
 IR Inten    --      9.0437                 2.2410                 2.1762

                     31                     32                     33
                      A                      A                      A
 Frequencies --    728.6538               758.3390               765.0831
 Red. masses --      3.1393                 2.0939                 1.4580
 Frc consts  --      0.9820                 0.7095                 0.5028
 IR Inten    --      1.5108                14.9129                20.8817

                     34                     35                     36
                      A                      A                      A
 Frequencies --    771.5800               779.3148               784.3622
 Red. masses --      1.5149                 1.4299                 2.1706
 Frc consts  --      0.5314                 0.5117                 0.7868
 IR Inten    --     44.5620                68.9714                10.8657

                     37                     38                     39
                      A                      A                      A
 Frequencies --    792.3866               812.4950               866.3202
 Red. masses --      2.2083                 2.8152                 1.4522
 Frc consts  --      0.8169                 1.0949                 0.6422
 IR Inten    --      4.3425                 0.4303                 0.8800

                     40                     41                     42
                      A                      A                      A
 Frequencies --    874.1608               879.8754               908.9122
 Red. masses --      1.8920                 1.4540                 2.2721
 Frc consts  --      0.8518                 0.6632                 1.1059
 IR Inten    --     12.4774                 0.2206                 4.2808

                     43                     44                     45
                      A                      A                      A
 Frequencies --    935.3943               943.6506               946.1821
 Red. masses --      1.8869                 1.3948                 1.9072
 Frc consts  --      0.9727                 0.7318                 1.0060
 IR Inten    --      2.4959                 1.3773                 6.8132

                     46                     47                     48
                      A                      A                      A
 Frequencies --    963.2939               975.0263               978.0115
 Red. masses --      2.1761                 1.2480                 2.0849
 Frc consts  --      1.1897                 0.6990                 1.1750
 IR Inten    --      1.8439                 0.1182                 4.5057

                     49                     50                     51
                      A                      A                      A
 Frequencies --    979.3311               988.9371              1051.6756
 Red. masses --      1.2652                 2.2184                 2.4941
 Frc consts  --      0.7149                 1.2783                 1.6253
 IR Inten    --      0.2692                 0.9955                 0.5490

                     52                     53                     54
                      A                      A                      A
 Frequencies --   1065.1464              1074.3033              1087.2372
 Red. masses --      2.1090                 2.1429                 2.5211
 Frc consts  --      1.4098                 1.4571                 1.7559
 IR Inten    --      3.0504                 2.6377                 4.0454

                     55                     56                     57
                      A                      A                      A
 Frequencies --   1099.0148              1114.8075              1138.4286
 Red. masses --      2.5403                 1.6659                 1.9237
 Frc consts  --      1.8078                 1.2198                 1.4689
 IR Inten    --      4.1714                 1.2705                20.3560

                     58                     59                     60
                      A                      A                      A
 Frequencies --   1155.1493              1158.7867              1171.2430
 Red. masses --      1.9209                 1.5726                 2.3067
 Frc consts  --      1.5102                 1.2441                 1.8644
 IR Inten    --     13.5355                 3.2507                40.7430

                     61                     62                     63
                      A                      A                      A
 Frequencies --   1188.4052              1189.0292              1194.1263
 Red. masses --      1.8954                 1.1169                 1.1721
 Frc consts  --      1.5771                 0.9304                 0.9847
 IR Inten    --     26.8134                 2.5984                 0.3361

                     64                     65                     66
                      A                      A                      A
 Frequencies --   1197.8635              1208.2723              1234.8681
 Red. masses --      1.1653                 1.8311                 2.4597
 Frc consts  --      0.9851                 1.5750                 2.2099
 IR Inten    --      2.6762                 1.1273                 4.2033

                     67                     68                     69
                      A                      A                      A
 Frequencies --   1250.7050              1256.7715              1261.2586
 Red. masses --      1.5833                 1.3531                 2.2419
 Frc consts  --      1.4592                 1.2592                 2.1012
 IR Inten    --     26.3301                15.4775                72.2445

                     70                     71                     72
                      A                      A                      A
 Frequencies --   1290.4865              1297.0506              1327.1429
 Red. masses --      1.5210                 1.5027                 1.6000
 Frc consts  --      1.4924                 1.4895                 1.6603
 IR Inten    --     16.7223                16.2112                 1.6921

                     73                     74                     75
                      A                      A                      A
 Frequencies --   1332.7242              1344.0865              1351.4460
 Red. masses --      1.7628                 2.5322                 1.4498
 Frc consts  --      1.8448                 2.6953                 1.5601
 IR Inten    --     61.0804                26.7722                 6.3310

                     76                     77                     78
                      A                      A                      A
 Frequencies --   1363.2792              1368.3788              1376.8160
 Red. masses --      2.7908                 1.8562                 1.5399
 Frc consts  --      3.0560                 2.0478                 1.7198
 IR Inten    --      2.5461                44.9022                 3.6717

                     79                     80                     81
                      A                      A                      A
 Frequencies --   1396.7015              1418.8332              1424.5435
 Red. masses --      1.4769                 1.4709                 1.4213
 Frc consts  --      1.6975                 1.7446                 1.6994
 IR Inten    --      7.1398                21.2230                 7.4793

                     82                     83                     84
                      A                      A                      A
 Frequencies --   1470.0630              1486.3615              1489.5280
 Red. masses --      1.1766                 1.4773                 1.3146
 Frc consts  --      1.4982                 1.9229                 1.7184
 IR Inten    --      0.2862                 9.1125                10.8862

                     85                     86                     87
                      A                      A                      A
 Frequencies --   1492.9313              1496.5730              1500.6509
 Red. masses --      1.2231                 1.3460                 1.1889
 Frc consts  --      1.6061                 1.7762                 1.5775
 IR Inten    --      4.1644                 5.2800                 5.3707

                     88                     89                     90
                      A                      A                      A
 Frequencies --   1502.7670              1505.5315              1517.0073
 Red. masses --      1.7983                 1.0899                 1.1029
 Frc consts  --      2.3928                 1.4556                 1.4954
 IR Inten    --     33.0538                 1.2651                 4.3128

                     91                     92                     93
                      A                      A                      A
 Frequencies --   1524.6169              1533.3943              1536.4064
 Red. masses --      1.2044                 1.0800                 1.9963
 Frc consts  --      1.6494                 1.4961                 2.7764
 IR Inten    --     65.5470                12.1842                98.6276

                     94                     95                     96
                      A                      A                      A
 Frequencies --   1546.7220              1631.3732              1641.9911
 Red. masses --      2.6470                 6.0984                 6.6049
 Frc consts  --      3.7310                 9.5625                10.4920
 IR Inten    --     17.7937                14.0854                 6.4925

                     97                     98                     99
                      A                      A                      A
 Frequencies --   1656.3762              1663.3800              2909.8302
 Red. masses --      5.9046                 5.7730                 1.0731
 Frc consts  --      9.5446                 9.4110                 5.3531
 IR Inten    --     23.6281                 9.6270                65.9872

                    100                    101                    102
                      A                      A                      A
 Frequencies --   2940.8011              2972.6022              3021.0360
 Red. masses --      1.0611                 1.0733                 1.0616
 Frc consts  --      5.4068                 5.5876                 5.7087
 IR Inten    --    102.5173                58.0584                27.3416

                    103                    104                    105
                      A                      A                      A
 Frequencies --   3047.0313              3055.9376              3060.3869
 Red. masses --      1.0753                 1.0677                 1.0844
 Frc consts  --      5.8821                 5.8746                 5.9841
 IR Inten    --     10.3450                15.6609                49.8987

                    106                    107                    108
                      A                      A                      A
 Frequencies --   3075.3736              3090.2107              3095.7530
 Red. masses --      1.0714                 1.0886                 1.0913
 Frc consts  --      5.9702                 6.1248                 6.1620
 IR Inten    --     52.6074                 9.5831                37.8089

                    109                    110                    111
                      A                      A                      A
 Frequencies --   3098.4958              3116.5097              3119.9900
 Red. masses --      1.0996                 1.1007                 1.0993
 Frc consts  --      6.2198                 6.2987                 6.3048
 IR Inten    --      3.8412                37.7186                43.2627

                    112                    113                    114
                      A                      A                      A
 Frequencies --   3164.9788              3173.0451              3184.3294
 Red. masses --      1.0878                 1.0869                 1.0880
 Frc consts  --      6.4198                 6.4478                 6.5000
 IR Inten    --     12.5184                 7.9699                 8.9079

                    115                    116                    117
                      A                      A                      A
 Frequencies --   3185.2044              3199.1532              3204.5667
 Red. masses --      1.0878                 1.0925                 1.0954
 Frc consts  --      6.5025                 6.5877                 6.6279
 IR Inten    --     10.4010                28.2955                32.2176

                    118                    119                    120
                      A                      A                      A
 Frequencies --   3208.5013              3223.1059              3535.2706
 Red. masses --      1.0973                 1.0923                 1.0747
 Frc consts  --      6.6557                 6.6854                 7.9141
 IR Inten    --     19.9152                11.9724                 0.5630

 - Thermochemistry -
 -------------------
 Temperature   298.150 Kelvin.  Pressure   1.00000 Atm.
 Atom     1 has atomic number  6 and mass  12.00000

 Molecular mass:   266.17830 amu.
 Principal axes and moments of inertia in atomic units:
                           1         2         3
     Eigenvalues --  4686.520876330.687058471.94680
           X            0.99856  -0.05331  -0.00517
           Y            0.05334   0.99856   0.00631
           Z            0.00482  -0.00658   0.99997
 This molecule is an asymmetric top.
 Rotational symmetry number  1.
 Warning -- assumption of classical behavior for rotation
           may cause significant error
 Rotational temperatures (Kelvin)      0.01848     0.01368     0.01022
 Rotational constants (GHZ):           0.38509     0.28508     0.21303
 Zero-point vibrational energy     961677.9 (Joules/Mol)
                                  229.84654 (Kcal/Mol)
 Warning -- explicit consideration of  28 degrees of freedom as
           vibrations may cause significant error
 Vibrational temperatures:     40.34    51.31    63.98    89.50   131.49
          (Kelvin)            171.51   183.46   212.37   241.28   297.86
                              312.22   388.30   429.24   443.36   467.40
                              486.85   526.98   559.05   616.85   647.27
                              670.84   682.53   726.64   772.27   806.30
                              831.41   852.99   875.62   923.17  1003.79
                             1048.37  1091.08  1100.78  1110.13  1121.26
                             1128.52  1140.07  1169.00  1246.44  1257.72
                             1265.94  1307.72  1345.82  1357.70  1361.34
                             1385.97  1402.85  1407.14  1409.04  1422.86
                             1513.13  1532.51  1545.68  1564.29  1581.24
                             1603.96  1637.94  1662.00  1667.24  1685.16
                             1709.85  1710.75  1718.08  1723.46  1738.43
                             1776.70  1799.49  1808.21  1814.67  1856.72
                             1866.17  1909.46  1917.49  1933.84  1944.43
                             1961.45  1968.79  1980.93  2009.54  2041.38
                             2049.60  2115.09  2138.54  2143.10  2148.00
                             2153.23  2159.10  2162.15  2166.12  2182.64
                             2193.58  2206.21  2210.55  2225.39  2347.18
                             2362.46  2383.16  2393.23  4186.60  4231.16
                             4276.91  4346.60  4384.00  4396.81  4403.21
                             4424.78  4446.12  4454.10  4458.04  4483.96
                             4488.97  4553.70  4565.30  4581.54  4582.80
                             4602.87  4610.66  4616.32  4637.33  5086.47

 Zero-point correction=                           0.366284 (Hartree/Particle)
 Thermal correction to Energy=                    0.383928
 Thermal correction to Enthalpy=                  0.384872
 Thermal correction to Gibbs Free Energy=         0.319780
 Sum of electronic and zero-point Energies=           -808.412011
 Sum of electronic and thermal Energies=              -808.394367
 Sum of electronic and thermal Enthalpies=            -808.393422
 Sum of electronic and thermal Free Energies=         -808.458515

                     E (Thermal)             CV                S
                      KCal/Mol        Cal/Mol-Kelvin    Cal/Mol-Kelvin
 Total                  240.919             70.373            136.999
 Electronic               0.000              0.000              0.000
 Translational            0.889              2.981             42.636
 Rotational               0.889              2.981             33.885
 Vibrational            239.141             64.411             60.478
 Vibration     1          0.593              1.984              5.964
 Vibration     2          0.594              1.982              5.487
 Vibration     3          0.595              1.980              5.049
 Vibration     4          0.597              1.972              4.386
 Vibration     5          0.602              1.955              3.630
 Vibration     6          0.609              1.933              3.113
 Vibration     7          0.611              1.926              2.983
 Vibration     8          0.617              1.905              2.703
 Vibration     9          0.624              1.882              2.461
 Vibration    10          0.641              1.830              2.070
 Vibration    11          0.646              1.815              1.984
 Vibration    12          0.674              1.729              1.597
 Vibration    13          0.691              1.677              1.426
 Vibration    14          0.698              1.658              1.372
 Vibration    15          0.709              1.626              1.286
 Vibration    16          0.719              1.599              1.220
 Vibration    17          0.739              1.542              1.095
 Vibration    18          0.757              1.495              1.006
 Vibration    19          0.790              1.408              0.863
 Vibration    20          0.809              1.361              0.796
 Vibration    21          0.824              1.325              0.748
 Vibration    22          0.831              1.307              0.725
 Vibration    23          0.860              1.239              0.646
 Vibration    24          0.892              1.169              0.572
 Vibration    25          0.916              1.117              0.523
 Vibration    26          0.934              1.079              0.489
 Vibration    27          0.950              1.047              0.462
 Vibration    28          0.967              1.014              0.435

                           ! Non-Optimized Parameters !
 Normal termination of Gaussian 16 at Fri Sep 23 16:19:50 2022.

 ----------------------------------------------------------------------
 # M062X/def2tzvp int=(grid=ultrafine) pop=nbo7 polar prop=efg volume g
 uess=read geom=check
 ----------------------------------------------------------------------

 ---------
 SecN5.xyz
 ---------
 Structure from the checkpoint file:  "SecN5_clust-12.chk"
 Charge =  0 Multiplicity = 1

 SCF Done:  E(RM062X) =  -808.594629827     A.U. after   12 cycles

  Exact polarizability:     228.793      28.797     223.626     -14.117       9.205     203.931
 Approx polarizability:     266.963      32.333     270.958     -24.770      15.932     288.984

 Summary of Natural Population Analysis:

                                     Natural Population
             Natural    ---------------------------------------------
  Atom No    Charge        Core      Valence    Rydberg      Total
 --------------------------------------------------------------------
    C  1   -0.41494      1.99999     4.40303    0.01192     6.41494
    N  2   -0.61970      1.99999     5.59361    0.02609     7.61970
    C  3   -0.21616      1.99999     4.20218    0.01399     6.21616
    C  4   -0.41694      1.99999     4.40442    0.01253     6.41694
    C  5   -0.20380      1.99999     4.19006    0.01375     6.20380
    N  6   -0.46589      1.99999     5.43928    0.02661     7.46589
    C  7    0.16602      1.99999     3.81554    0.01845     5.83398
    C  8   -0.03111      1.99999     4.01352    0.01760     6.03111
    C  9   -0.41390      1.99999     4.40207    0.01184     6.41390
    C 10   -0.40443      1.99999     4.39339    0.01104     6.40443
    C 11   -0.04833      1.99999     4.03195    0.01639     6.04833
    C 12    0.16779      1.99999     3.81387    0.01835     5.83221
    C 13   -0.24770      1.99999     4.23107    0.01663     6.24770
    C 14   -0.20433      1.99999     4.18779    0.01654     6.20433
    C 15   -0.22924      1.99999     4.21261    0.01664     6.22924
    C 16   -0.19047      1.99999     4.17455    0.01593     6.19047
    C 17   -0.20238      1.99999     4.18609    0.01630     6.20238
    C 18   -0.21999      1.99999     4.20358    0.01643     6.21999
    C 19   -0.20892      1.99999     4.19254    0.01639     6.20892
    C 20   -0.23436      1.99999     4.21854    0.01582     6.23436
    H 21    0.16121      0.00000     0.83597    0.00282     0.83879
    H 22    0.20178      0.00000     0.79716    0.00106     0.79822
    H 23    0.18827      0.00000     0.81029    0.00144     0.81173
    H 24    0.35343      0.00000     0.64448    0.00209     0.64657
    H 25    0.15576      0.00000     0.84078    0.00346     0.84424
    H 26    0.20300      0.00000     0.79521    0.00180     0.79700
    H 27    0.21750      0.00000     0.78068    0.00182     0.78250
    H 28    0.20572      0.00000     0.79276    0.00153     0.79428
    H 29    0.17698      0.00000     0.82034    0.00268     0.82302
    H 30    0.21164      0.00000     0.78661    0.00175     0.78836
    H 31    0.21304      0.00000     0.78547    0.00149     0.78696
    H 32    0.21978      0.00000     0.77818    0.00204     0.78022
    H 33    0.21406      0.00000     0.78401    0.00194     0.78594
    H 34    0.21538      0.00000     0.78301    0.00161     0.78462
    H 35    0.21211      0.00000     0.78616    0.00174     0.78789
    H 36    0.21339      0.00000     0.78542    0.00119     0.78661
    H 37    0.21430      0.00000     0.78455    0.00115     0.78570
    H 38    0.20699      0.00000     0.79167    0.00134     0.79301
    H 39    0.21017      0.00000     0.78843    0.00139     0.78983
    H 40    0.21438      0.00000     0.78449    0.00114     0.78562
    H 41    0.21423      0.00000     0.78459    0.00118     0.78577
    H 42    0.21568      0.00000     0.78280    0.00152     0.78432
 ====================================================================
 * Total *  0.00000     39.99984   103.63276    0.36739   144.00000

 1\1\GINC-NOTCH362\SP\RM062X\def2TZVP\C18H22N2\U6032257\23-Sep-2022\0\\
 # M062X/def2tzvp int=(grid=ultrafine) pop=nbo7 polar prop=efg volume g
 uess=read geom=check\\SecN5.xyz\\0,1\C,0,-0.6708292201,-3.9439088604,4
 .0330625085\N,0,-1.0620564972,-3.7513745741,2.6423830616\C,0,-0.114640
 7185,-2.9570327158,1.86357191\C,0,-0.2666793116,-1.4599677598,2.141938
 6353\C,0,0.8007210847,-0.6139936852,1.4416764711\N,0,0.8982650964,-0.8
 851487124,0.0048412171\C,0,2.1942762594,-0.7638383442,-0.5742435332\C,
 0,2.624944165,-1.7503917651,-1.4759578714\C,0,1.6828085426,-2.87040196

 Normal termination of Gaussian 16 at Fri Sep 23 16:28:20 2022.
 Gaussian 16:  ES64L-G16RevC.01  3-Jul-2019

 --------------------------------------------------------------------
 # M062X/def2tzvp int=(grid=ultrafine) nmr=giao guess=read geom=check
 --------------------------------------------------------------------

 ---------
 SecN5.xyz
 ---------
 Structure from the checkpoint file:  "SecN5_clust-12.chk"
 Charge =  0 Multiplicity = 1

                         Standard orientation:
 ---------------------------------------------------------------------
 Center     Atomic      Atomic             Coordinates (Angstroms)
 Number     Number       Type             X           Y           Z
 ---------------------------------------------------------------------
      1          6           0        4.475094   -2.631703    0.533455
      2          7           0        3.811602   -1.397663    0.934756
      3          6           0        2.406140   -1.324294    0.541801
      4          6           0        2.249013   -0.960071   -0.936191
      5          6           0        0.792819   -1.006805   -1.408100
      6          7           0       -0.111116   -0.221584   -0.563195
      7          6           0       -1.438762   -0.719613   -0.425273
      8          6           0       -2.027838   -0.725136    0.849407
      9          6           0       -1.238786   -0.174322    2.001884
     10          6           0       -1.076910    1.347476    1.906044
     11          6           0       -0.314701    1.905127    0.713333
     12          6           0        0.115916    1.175874   -0.419924
     13          6           0        0.811237    1.858169   -1.435694
     14          6           0        1.096129    3.215478   -1.348283
     15          6           0        0.671874    3.939518   -0.236866
     16          6           0       -0.027079    3.275770    0.764999
     17          6           0       -3.322297   -1.227230    0.995549
     18          6           0       -4.020880   -1.746835   -0.094583
     19          6           0       -3.421519   -1.759291   -1.353371
     20          6           0       -2.137519   -1.241651   -1.519473
     21          1           0        3.943020   -3.551185    0.841721
     22          1           0        5.482531   -2.659721    0.958645
     23          1           0        4.582745   -2.666346   -0.555399
     24          1           0        3.875286   -1.304617    1.943760
     25          1           0        1.858022   -2.266433    0.744414
     26          1           0        1.927437   -0.545465    1.141710
     27          1           0        2.690247    0.026945   -1.096698
     28          1           0        2.812917   -1.661216   -1.562570
     29          1           0        0.737872   -0.727345   -2.472693
     30          1           0        0.436068   -2.038368   -1.344284
     31          1           0       -1.739996   -0.413828    2.945234
     32          1           0       -0.251229   -0.648207    2.024276
     33          1           0       -2.080749    1.793032    1.913286
     34          1           0       -0.583043    1.709825    2.816256
     35          1           0        1.124266    1.314727   -2.318239
     36          1           0        1.638272    3.702412   -2.153219
     37          1           0        0.883561    5.000192   -0.148309
     38          1           0       -0.358782    3.831368    1.639136
     39          1           0       -3.777791   -1.228553    1.982424
     40          1           0       -5.022118   -2.144082    0.039741
     41          1           0       -3.955261   -2.159677   -2.209986
     42          1           0       -1.678271   -1.231488   -2.502409
 ---------------------------------------------------------------------

 SCF Done:  E(RM062X) =  -808.594629827     A.U. after    1 cycles

      1  C    Isotropic =   148.7620   Anisotropy =    57.2428

      2  N    Isotropic =   224.1577   Anisotropy =    65.3153

      3  C    Isotropic =   131.1902   Anisotropy =    53.0760

      4  C    Isotropic =   158.5266   Anisotropy =    28.6886

      5  C    Isotropic =   132.4275   Anisotropy =    41.0810

      6  N    Isotropic =   173.8360   Anisotropy =    72.9454

      7  C    Isotropic =     7.0834   Anisotropy =   177.6472

      8  C    Isotropic =    21.7622   Anisotropy =   216.3693

      9  C    Isotropic =   151.4508   Anisotropy =    23.5741

     10  C    Isotropic =   148.4300   Anisotropy =    24.3291

     11  C    Isotropic =    32.3290   Anisotropy =   203.5225

     12  C    Isotropic =    19.3550   Anisotropy =   178.7568

     13  C    Isotropic =    45.2029   Anisotropy =   205.0784

     14  C    Isotropic =    38.4441   Anisotropy =   206.5503

     15  C    Isotropic =    43.8967   Anisotropy =   201.7379

     16  C    Isotropic =    30.8993   Anisotropy =   194.9136

     17  C    Isotropic =    35.9234   Anisotropy =   185.0241

     18  C    Isotropic =    40.0093   Anisotropy =   205.1793

     19  C    Isotropic =    37.4606   Anisotropy =   210.7680

     20  C    Isotropic =    42.6283   Anisotropy =   199.1333

     21  H    Isotropic =    29.9484   Anisotropy =     9.3773

     22  H    Isotropic =    29.3993   Anisotropy =    10.7758

     23  H    Isotropic =    29.4586   Anisotropy =     8.1558

     24  H    Isotropic =    31.6556   Anisotropy =    14.6265

     25  H    Isotropic =    29.7331   Anisotropy =     4.3425

     26  H    Isotropic =    28.6335   Anisotropy =    10.3893

     27  H    Isotropic =    29.8996   Anisotropy =     6.2913

     28  H    Isotropic =    30.3462   Anisotropy =     8.4083

     29  H    Isotropic =    27.4023   Anisotropy =     7.9889

     30  H    Isotropic =    28.7555   Anisotropy =     4.6516

     31  H    Isotropic =    29.2414   Anisotropy =     9.2782

     32  H    Isotropic =    27.9894   Anisotropy =     5.9813

     33  H    Isotropic =    28.9119   Anisotropy =     7.4045

     34  H    Isotropic =    28.5795   Anisotropy =     8.6667

     35  H    Isotropic =    24.0788   Anisotropy =    11.3064

     36  H    Isotropic =    24.0145   Anisotropy =     6.0009

     37  H    Isotropic =    24.3393   Anisotropy =     4.7779

     38  H    Isotropic =    24.0387   Anisotropy =     9.4194

     39  H    Isotropic =    23.9351   Anisotropy =     8.3216

     40  H    Isotropic =    24.1297   Anisotropy =     5.2131

     41  H    Isotropic =    23.9812   Anisotropy =     5.9604

     42  H    Isotropic =    23.9966   Anisotropy =    11.3614

 The electronic state is 1-A.
 Alpha  occ. eigenvalues --  -14.75815 -14.72822 -10.58093 -10.57559 -10.56903
 Alpha  occ. eigenvalues --  -10.55339 -10.54952 -10.54698 -10.54438 -10.54155
 Alpha  occ. eigenvalues --  -10.54084 -10.54006 -10.53977 -10.53804 -10.53802
 Alpha  occ. eigenvalues --  -10.53611 -10.53506 -10.53452 -10.53179 -10.52846
 Alpha  occ. eigenvalues --   -1.06003  -1.00548  -0.95893  -0.94772  -0.89888
 Alpha  occ. eigenvalues --   -0.86961  -0.85117  -0.84600  -0.81824  -0.79818
 Alpha  occ. eigenvalues --   -0.77269  -0.73743  -0.72760  -0.68897  -0.68033
 Alpha  occ. eigenvalues --   -0.66628  -0.65699  -0.63743  -0.59220  -0.58000
 Alpha  occ. eigenvalues --   -0.56698  -0.55334  -0.54417  -0.53817  -0.53089
 Alpha  occ. eigenvalues --   -0.52467  -0.51045  -0.50315  -0.49929  -0.49397
 Alpha  occ. eigenvalues --   -0.48204  -0.47372  -0.46198  -0.45216  -0.45041
 Alpha  occ. eigenvalues --   -0.44719  -0.44468  -0.43130  -0.41986  -0.41354
 Alpha  occ. eigenvalues --   -0.40722  -0.40198  -0.40003  -0.39208  -0.38678
 Alpha  occ. eigenvalues --   -0.38499  -0.34630  -0.30219  -0.29643  -0.28978
 Alpha  occ. eigenvalues --   -0.28862  -0.25028
 Alpha virt. eigenvalues --    0.01551   0.02583   0.02895   0.03388   0.06171
 Alpha virt. eigenvalues --    0.07025   0.07684   0.08973   0.09126   0.09518
 Alpha virt. eigenvalues --    0.10389   0.10633   0.11912   0.12384   0.12887

 Mulliken charges:
               1
     1  C   -0.322283
     2  N   -0.364638
     3  C   -0.210079
     4  C   -0.249903
     5  C   -0.404082
     6  N   -0.130072
     7  C    0.111819
     8  C    0.092170
     9  C   -0.438907
    10  C   -0.324833
    11  C    0.056799
    12  C    0.135196
    13  C   -0.230017
    14  C   -0.147063
    15  C   -0.167107
    16  C   -0.168310
    17  C   -0.140091
    18  C   -0.156998
    19  C   -0.141533
    20  C   -0.212772
    21  H    0.123435
    22  H    0.140792
    23  H    0.136335
    24  H    0.208731
    25  H    0.149038
    26  H    0.129821
    27  H    0.182653
    28  H    0.144439
    29  H    0.177627
    30  H    0.196313
    31  H    0.151570
    32  H    0.185379
    33  H    0.171699
    34  H    0.156258
    35  H    0.163806
    36  H    0.140163
    37  H    0.138759
    38  H    0.139344
    39  H    0.135281
    40  H    0.140408
    41  H    0.141362
    42  H    0.159491
 Sum of Mulliken charges =   0.00000

 Dipole moment (field-independent basis, Debye):
    X=             -0.0889    Y=             -1.1118    Z=              0.5830  Tot=              1.2585
 Quadrupole moment (field-independent basis, Debye-Ang):
   XX=           -122.0853   YY=           -119.0433   ZZ=           -110.8013
   XY=             -0.9046   XZ=             -2.0162   YZ=              2.1461

 1\1\GINC-NOTCH362\SP\RM062X\def2TZVP\C18H22N2\U6032257\23-Sep-2022\0\\
 # M062X/def2tzvp int=(grid=ultrafine) nmr=giao guess=read geom=check\\
 SecN5.xyz\\0,1\C,0,-0.6708292201,-3.9439088604,4.0330625085\N,0,-1.062
 0564972,-3.7513745741,2.6423830616\C,0,-0.1146407185,-2.9570327158,1.8
 6357191\C,0,-0.2666793116,-1.4599677598,2.1419386353\C,0,0.8007210847,
 -0.6139936852,1.4416764711\N,0,0.8982650964,-0.8851487124,0.0048412171
 \C,0,2.1942762594,-0.7638383442,-0.5742435332\C,0,2.624944165,-1.75039
 17651,-1.4759578714\C,0,1.6828085426,-2.8704019633,-1.810857764\C,0,0.

 Normal termination of Gaussian 16 at Fri Sep 23 16:31:53 2022.
