 Gaussian 16, Revision C.01,

 ----------------------------------------------------------------------
 # B3LYP/6-31G(d,p) empiricaldispersion=GD3BJ int=(grid=ultrafine) opt
 freq=noraman
 ----------------------------------------------------------------------

 ---------
 SecN5.xyz
 ---------
 Symbolic Z-matrix:
 Charge =  0 Multiplicity = 1

 SCF Done:  E(RB3LYP) =  -808.768337846     A.U. after   14 cycles
 SCF Done:  E(RB3LYP) =  -808.774414999     A.U. after   11 cycles
 SCF Done:  E(RB3LYP) =  -808.775708170     A.U. after   11 cycles
 SCF Done:  E(RB3LYP) =  -808.776518732     A.U. after   12 cycles
 SCF Done:  E(RB3LYP) =  -808.777080050     A.U. after   12 cycles
 SCF Done:  E(RB3LYP) =  -808.777754540     A.U. after   12 cycles
 SCF Done:  E(RB3LYP) =  -808.777832417     A.U. after   10 cycles
 SCF Done:  E(RB3LYP) =  -808.777853998     A.U. after   11 cycles
 SCF Done:  E(RB3LYP) =  -808.777861151     A.U. after   10 cycles
 SCF Done:  E(RB3LYP) =  -808.777857118     A.U. after   10 cycles
 SCF Done:  E(RB3LYP) =  -808.777869540     A.U. after   10 cycles
 SCF Done:  E(RB3LYP) =  -808.777869576     A.U. after    7 cycles
 SCF Done:  E(RB3LYP) =  -808.777869695     A.U. after    8 cycles
 Optimization completed.
    -- Stationary point found.
 Normal termination of Gaussian 16 at Fri Sep 23 16:18:59 2022.

 ----------------------------------------------------------------------
 #N Geom=AllCheck Guess=TCheck SCRF=Check GenChk RB3LYP/6-31G(d,p) Freq
 ----------------------------------------------------------------------

 Structure from the checkpoint file:  "SecN5_clust-9.chk"
 ---------
 SecN5.xyz
 ---------
 Charge =  0 Multiplicity = 1

 SCF Done:  E(RB3LYP) =  -808.777869695     A.U. after    1 cycles

                      1                      2                      3
                      A                      A                      A
 Frequencies --     33.7411                43.7800                46.0177
 Red. masses --      3.7746                 3.9026                 3.5520
 Frc consts  --      0.0025                 0.0044                 0.0044
 IR Inten    --      0.1600                 0.4877                 0.1758

                      4                      5                      6
                      A                      A                      A
 Frequencies --     53.5362                89.5735               106.5801
 Red. masses --      1.9360                 3.3513                 3.2176
 Frc consts  --      0.0033                 0.0158                 0.0215
 IR Inten    --      1.6854                 0.4427                 1.2310

                      7                      8                      9
                      A                      A                      A
 Frequencies --    134.0610               144.8182               154.3371
 Red. masses --      3.6553                 2.2947                 2.8187
 Frc consts  --      0.0387                 0.0284                 0.0396
 IR Inten    --      0.7459                 1.5963                 0.9643

                     10                     11                     12
                      A                      A                      A
 Frequencies --    194.2476               216.3049               240.5915
 Red. masses --      2.8708                 4.6122                 2.5292
 Frc consts  --      0.0638                 0.1271                 0.0863
 IR Inten    --      0.2138                 0.1798                 1.3962

                     13                     14                     15
                      A                      A                      A
 Frequencies --    258.6104               275.0707               309.2438
 Red. masses --      1.1807                 3.5112                 3.2157
 Frc consts  --      0.0465                 0.1565                 0.1812
 IR Inten    --      1.0879                 0.7700                 1.2240

                     16                     17                     18
                      A                      A                      A
 Frequencies --    336.8096               347.9419               388.6666
 Red. masses --      3.5772                 3.9558                 3.5633
 Frc consts  --      0.2391                 0.2822                 0.3171
 IR Inten    --      0.2972                 3.5938                 1.3982

                     19                     20                     21
                      A                      A                      A
 Frequencies --    414.9153               446.7876               471.8997
 Red. masses --      4.8536                 2.9027                 3.8125
 Frc consts  --      0.4923                 0.3414                 0.5002
 IR Inten    --      4.1582                 3.8170                 1.2356

                     22                     23                     24
                      A                      A                      A
 Frequencies --    474.7392               508.0897               523.2148
 Red. masses --      3.0940                 3.6361                 3.4168
 Frc consts  --      0.4108                 0.5531                 0.5511
 IR Inten    --      0.4511                 7.1066                 1.2060

                     25                     26                     27
                      A                      A                      A
 Frequencies --    551.1513               577.9920               598.3335
 Red. masses --      3.8521                 4.9033                 3.3506
 Frc consts  --      0.6894                 0.9651                 0.7067
 IR Inten    --      1.4249                 0.9971                 0.1686

                     28                     29                     30
                      A                      A                      A
 Frequencies --    623.0369               638.0220               709.1181
 Red. masses --      3.9631                 5.0428                 4.3925
 Frc consts  --      0.9064                 1.2095                 1.3014
 IR Inten    --     11.1775                 6.0687                 1.1130

                     31                     32                     33
                      A                      A                      A
 Frequencies --    728.3827               758.4032               765.7605
 Red. masses --      3.2054                 1.9277                 1.5622
 Frc consts  --      1.0020                 0.6533                 0.5397
 IR Inten    --      3.2571                16.3361                18.3839

                     34                     35                     36
                      A                      A                      A
 Frequencies --    774.9411               783.1185               789.8472
 Red. masses --      1.5288                 1.6584                 1.9030
 Frc consts  --      0.5409                 0.5992                 0.6995
 IR Inten    --     15.8820                30.5116                 0.5810

                     37                     38                     39
                      A                      A                      A
 Frequencies --    791.3048               815.9200               865.2058
 Red. masses --      1.3436                 3.3389                 1.3750
 Frc consts  --      0.4957                 1.3096                 0.6064
 IR Inten    --     70.8505                 6.1629                 2.4825

                     40                     41                     42
                      A                      A                      A
 Frequencies --    875.4439               886.1716               917.5370
 Red. masses --      1.6409                 1.6863                 1.6705
 Frc consts  --      0.7410                 0.7802                 0.8286
 IR Inten    --      3.8573                 5.3967                 5.4715

                     43                     44                     45
                      A                      A                      A
 Frequencies --    932.7192               943.9066               947.1216
 Red. masses --      1.8178                 1.3904                 1.8422
 Frc consts  --      0.9317                 0.7299                 0.9736
 IR Inten    --      5.0448                 1.8885                 7.1052

                     46                     47                     48
                      A                      A                      A
 Frequencies --    973.9778               979.9688               984.9085
 Red. masses --      1.2468                 1.2542                 2.1368
 Frc consts  --      0.6968                 0.7096                 1.2213
 IR Inten    --      0.1636                 0.0304                 1.9772

                     49                     50                     51
                      A                      A                      A
 Frequencies --    987.5893              1050.6775              1055.9072
 Red. masses --      2.1987                 2.4997                 2.8871
 Frc consts  --      1.2635                 1.6258                 1.8966
 IR Inten    --      1.9205                 1.1514                 7.4319

                     52                     53                     54
                      A                      A                      A
 Frequencies --   1066.3096              1073.9334              1086.5978
 Red. masses --      2.6264                 2.1239                 2.9897
 Frc consts  --      1.7595                 1.4432                 2.0798
 IR Inten    --      3.6232                 3.5340                 4.1971

                     55                     56                     57
                      A                      A                      A
 Frequencies --   1094.1876              1115.0691              1139.3195
 Red. masses --      2.2259                 1.5465                 1.9176
 Frc consts  --      1.5701                 1.1329                 1.4666
 IR Inten    --      9.6658                14.8637                19.4410

                     58                     59                     60
                      A                      A                      A
 Frequencies --   1154.0382              1157.5224              1181.2361
 Red. masses --      2.1848                 2.2946                 1.7468
 Frc consts  --      1.7144                 1.8114                 1.4360
 IR Inten    --     48.9118                 9.5850                 2.2848

                     61                     62                     63
                      A                      A                      A
 Frequencies --   1188.7532              1193.7929              1195.2207
 Red. masses --      1.1219                 1.2297                 1.5184
 Frc consts  --      0.9341                 1.0325                 1.2780
 IR Inten    --      2.6075                 3.0843                16.0543

                     64                     65                     66
                      A                      A                      A
 Frequencies --   1198.5896              1208.9078              1234.7033
 Red. masses --      1.2179                 1.8244                 2.5228
 Frc consts  --      1.0309                 1.5709                 2.2660
 IR Inten    --      5.1634                 1.4464                 3.7804

                     67                     68                     69
                      A                      A                      A
 Frequencies --   1250.0906              1254.3145              1267.5500
 Red. masses --      1.4359                 1.4304                 2.7803
 Frc consts  --      1.3221                 1.3260                 2.6319
 IR Inten    --     28.9610                14.3641                67.4670

                     70                     71                     72
                      A                      A                      A
 Frequencies --   1290.8109              1305.7370              1319.9998
 Red. masses --      1.7012                 1.4416                 1.2379
 Frc consts  --      1.6700                 1.4482                 1.2709
 IR Inten    --     42.8258                 1.6256                25.5624

                     73                     74                     75
                      A                      A                      A
 Frequencies --   1327.5652              1330.0410              1343.7872
 Red. masses --      1.3494                 1.4736                 4.0689
 Frc consts  --      1.4012                 1.5359                 4.3290
 IR Inten    --      1.1583                23.1222                18.9949

                     76                     77                     78
                      A                      A                      A
 Frequencies --   1355.6635              1371.0640              1375.9982
 Red. masses --      2.3179                 2.6974                 1.5408
 Frc consts  --      2.5099                 2.9875                 1.7188
 IR Inten    --     17.6874                26.6796                 4.5231

                     79                     80                     81
                      A                      A                      A
 Frequencies --   1395.4785              1411.2171              1433.6212
 Red. masses --      1.4731                 1.4119                 1.5319
 Frc consts  --      1.6901                 1.6566                 1.8551
 IR Inten    --      8.8781                 4.0760                37.7820

                     82                     83                     84
                      A                      A                      A
 Frequencies --   1472.1961              1485.7882              1489.4053
 Red. masses --      1.1898                 1.5825                 1.2451
 Frc consts  --      1.5193                 2.0583                 1.6274
 IR Inten    --      0.5953                18.3103                14.5607

                     85                     86                     87
                      A                      A                      A
 Frequencies --   1493.7619              1494.7799              1503.0469
 Red. masses --      1.2535                 1.3778                 1.8926
 Frc consts  --      1.6479                 1.8139                 2.5192
 IR Inten    --     25.1813                 1.7774                20.4488

                     88                     89                     90
                      A                      A                      A
 Frequencies --   1504.3774              1513.2873              1524.8531
 Red. masses --      1.1145                 1.0884                 1.1404
 Frc consts  --      1.4861                 1.4685                 1.5623
 IR Inten    --      9.5975                 2.1692                47.6343

                     91                     92                     93
                      A                      A                      A
 Frequencies --   1530.7065              1535.2673              1540.8868
 Red. masses --      1.0978                 2.0908                 1.1368
 Frc consts  --      1.5155                 2.9036                 1.5903
 IR Inten    --     10.0599               110.6800                 1.8477

                     94                     95                     96
                      A                      A                      A
 Frequencies --   1547.7951              1631.6381              1642.8969
 Red. masses --      2.3715                 6.1271                 6.5869
 Frc consts  --      3.3473                 9.6107                10.4749
 IR Inten    --     18.0233                14.9165                 6.7951

                     97                     98                     99
                      A                      A                      A
 Frequencies --   1656.3488              1663.1121              2905.5130
 Red. masses --      5.8947                 5.7907                 1.0735
 Frc consts  --      9.5283                 9.4369                 5.3393
 IR Inten    --     23.5346                11.0930                68.3341

                    100                    101                    102
                      A                      A                      A
 Frequencies --   2943.7882              2954.7726              3021.1126
 Red. masses --      1.0605                 1.0727                 1.0617
 Frc consts  --      5.4146                 5.5182                 5.7095
 IR Inten    --    117.6487                48.8549                27.8661

                    103                    104                    105
                      A                      A                      A
 Frequencies --   3028.5778              3045.0733              3045.7459
 Red. masses --      1.0824                 1.0703                 1.0716
 Frc consts  --      5.8492                 5.8474                 5.8569
 IR Inten    --      9.7830                23.5662                31.3309

                    106                    107                    108
                      A                      A                      A
 Frequencies --   3060.1789              3065.0845              3087.9001
 Red. masses --      1.0881                 1.0740                 1.0878
 Frc consts  --      6.0039                 5.9449                 6.1111
 IR Inten    --     51.8607                45.5288                10.9591

                    109                    110                    111
                      A                      A                      A
 Frequencies --   3097.1284              3115.1948              3118.4959
 Red. masses --      1.1048                 1.1017                 1.0963
 Frc consts  --      6.2436                 6.2990                 6.2815
 IR Inten    --     22.7888                34.6173                28.2185

                    112                    113                    114
                      A                      A                      A
 Frequencies --   3164.7607              3173.7103              3184.0872
 Red. masses --      1.0877                 1.0869                 1.0878
 Frc consts  --      6.4187                 6.4504                 6.4976
 IR Inten    --     13.0014                 8.1587                10.1986

                    115                    116                    117
                      A                      A                      A
 Frequencies --   3185.0867              3199.3057              3203.8033
 Red. masses --      1.0879                 1.0924                 1.0952
 Frc consts  --      6.5028                 6.5876                 6.6233
 IR Inten    --      8.1517                27.8882                34.1882

                    118                    119                    120
                      A                      A                      A
 Frequencies --   3208.7969              3220.4691              3508.9625
 Red. masses --      1.0973                 1.0927                 1.0739
 Frc consts  --      6.6570                 6.6771                 7.7909
 IR Inten    --     19.8850                12.7068                 0.7320

 - Thermochemistry -
 -------------------
 Temperature   298.150 Kelvin.  Pressure   1.00000 Atm.
 Atom     1 has atomic number  6 and mass  12.00000

 Molecular mass:   266.17830 amu.
 Principal axes and moments of inertia in atomic units:
                           1         2         3
     Eigenvalues --  4382.454137600.44824**********
           X            0.99957   0.02895   0.00350
           Y           -0.02898   0.99954   0.00868
           Z           -0.00325  -0.00878   0.99996
 This molecule is an asymmetric top.
 Rotational symmetry number  1.
 Warning -- assumption of classical behavior for rotation
           may cause significant error
 Rotational temperatures (Kelvin)      0.01976     0.01140     0.00843
 Rotational constants (GHZ):           0.41181     0.23745     0.17575
 Zero-point vibrational energy     960654.3 (Joules/Mol)
                                  229.60189 (Kcal/Mol)
 Warning -- explicit consideration of  27 degrees of freedom as
           vibrations may cause significant error
 Vibrational temperatures:     48.55    62.99    66.21    77.03   128.88
          (Kelvin)            153.34   192.88   208.36   222.06   279.48
                              311.21   346.16   372.08   395.77   444.93
                              484.59   500.61   559.20   596.97   642.83
                              678.96   683.04   731.03   752.79   792.98
                              831.60   860.87   896.41   917.97  1020.26
                             1047.98  1091.17  1101.76  1114.97  1126.73
                             1136.41  1138.51  1173.93  1244.84  1259.57
                             1275.00  1320.13  1341.97  1358.07  1362.70
                             1401.34  1409.96  1417.06  1420.92  1511.69
                             1519.21  1534.18  1545.15  1563.37  1574.29
                             1604.34  1639.23  1660.40  1665.42  1699.54
                             1710.35  1717.60  1719.66  1724.50  1739.35
                             1776.46  1798.60  1804.68  1823.72  1857.19
                             1878.66  1899.19  1910.07  1913.63  1933.41
                             1950.50  1972.66  1979.75  2007.78  2030.43
                             2062.66  2118.16  2137.72  2142.92  2149.19
                             2150.65  2162.55  2164.46  2177.28  2193.92
                             2202.35  2208.91  2216.99  2226.93  2347.56
                             2363.76  2383.12  2392.85  4180.39  4235.45
                             4251.26  4346.71  4357.45  4381.18  4382.15
                             4402.91  4409.97  4442.80  4456.08  4482.07
                             4486.82  4553.38  4566.26  4581.19  4582.63
                             4603.09  4609.56  4616.74  4633.54  5048.61

 Zero-point correction=                           0.365894 (Hartree/Particle)
 Thermal correction to Energy=                    0.383751
 Thermal correction to Enthalpy=                  0.384695
 Thermal correction to Gibbs Free Energy=         0.319115
 Sum of electronic and zero-point Energies=           -808.411976
 Sum of electronic and thermal Energies=              -808.394118
 Sum of electronic and thermal Enthalpies=            -808.393174
 Sum of electronic and thermal Free Energies=         -808.458755

                     E (Thermal)             CV                S
                      KCal/Mol        Cal/Mol-Kelvin    Cal/Mol-Kelvin
 Total                  240.808             70.527            138.025
 Electronic               0.000              0.000              0.000
 Translational            0.889              2.981             42.636
 Rotational               0.889              2.981             34.191
 Vibrational            239.030             64.565             61.198
 Vibration     1          0.594              1.983              5.596
 Vibration     2          0.595              1.980              5.080
 Vibration     3          0.595              1.979              4.982
 Vibration     4          0.596              1.976              4.682
 Vibration     5          0.602              1.957              3.669
 Vibration     6          0.605              1.944              3.330
 Vibration     7          0.613              1.919              2.887
 Vibration     8          0.616              1.908              2.739
 Vibration     9          0.620              1.898              2.618
 Vibration    10          0.635              1.848              2.187
 Vibration    11          0.645              1.816              1.990
 Vibration    12          0.658              1.778              1.799
 Vibration    13          0.667              1.748              1.671
 Vibration    14          0.677              1.719              1.564
 Vibration    15          0.699              1.656              1.366
 Vibration    16          0.718              1.602              1.227
 Vibration    17          0.726              1.579              1.175
 Vibration    18          0.757              1.494              1.005
 Vibration    19          0.778              1.438              0.909
 Vibration    20          0.806              1.368              0.806
 Vibration    21          0.829              1.312              0.732
 Vibration    22          0.831              1.306              0.724
 Vibration    23          0.863              1.232              0.638
 Vibration    24          0.878              1.199              0.603
 Vibration    25          0.906              1.137              0.542
 Vibration    26          0.935              1.079              0.489
 Vibration    27          0.956              1.035              0.453

 Optimization completed.
    -- Stationary point found.
 Normal termination of Gaussian 16 at Fri Sep 23 16:21:18 2022.

 ----------------------------------------------------------------------
 # M062X/def2tzvp int=(grid=ultrafine) pop=nbo7 polar prop=efg volume g
 uess=read geom=check
 ----------------------------------------------------------------------

 ---------
 SecN5.xyz
 ---------
 Structure from the checkpoint file:  "SecN5_clust-9.chk"
 Charge =  0 Multiplicity = 1

 SCF Done:  E(RM062X) =  -808.594846654     A.U. after   11 cycles

  Exact polarizability:     236.775     -16.445     243.779      21.055      11.780     181.499
 Approx polarizability:     268.212     -10.300     298.268      33.644      20.473     258.604

 Summary of Natural Population Analysis:

                                     Natural Population
             Natural    ---------------------------------------------
  Atom No    Charge        Core      Valence    Rydberg      Total
 --------------------------------------------------------------------
    C  1   -0.40973      1.99999     4.39813    0.01161     6.40973
    N  2   -0.61450      1.99999     5.58832    0.02618     7.61450
    C  3   -0.20917      1.99999     4.19564    0.01354     6.20917
    C  4   -0.41094      1.99999     4.39882    0.01213     6.41094
    C  5   -0.19987      1.99999     4.18640    0.01347     6.19987
    N  6   -0.45796      1.99999     5.43175    0.02622     7.45796
    C  7    0.17292      1.99999     3.80966    0.01743     5.82708
    C  8   -0.04616      1.99999     4.02994    0.01622     6.04616
    C  9   -0.40310      1.99999     4.39206    0.01105     6.40310
    C 10   -0.41398      1.99999     4.40222    0.01177     6.41398
    C 11   -0.03080      1.99999     4.01313    0.01767     6.03080
    C 12    0.16377      1.99999     3.81745    0.01879     5.83623
    C 13   -0.23486      1.99999     4.21865    0.01622     6.23486
    C 14   -0.20838      1.99999     4.19203    0.01636     6.20838
    C 15   -0.21809      1.99999     4.20171    0.01638     6.21809
    C 16   -0.20248      1.99999     4.18625    0.01624     6.20248
    C 17   -0.18966      1.99999     4.17371    0.01596     6.18966
    C 18   -0.23195      1.99999     4.21523    0.01672     6.23195
    C 19   -0.20411      1.99999     4.18750    0.01662     6.20411
    C 20   -0.25269      1.99999     4.23645    0.01625     6.25269
    H 21    0.16130      0.00000     0.83596    0.00274     0.83870
    H 22    0.20075      0.00000     0.79817    0.00108     0.79925
    H 23    0.18984      0.00000     0.80861    0.00155     0.81016
    H 24    0.34679      0.00000     0.65072    0.00249     0.65321
    H 25    0.15544      0.00000     0.84133    0.00323     0.84456
    H 26    0.18304      0.00000     0.81470    0.00226     0.81696
    H 27    0.22152      0.00000     0.77645    0.00203     0.77848
    H 28    0.19945      0.00000     0.79858    0.00197     0.80055
    H 29    0.20997      0.00000     0.78811    0.00193     0.79003
    H 30    0.16889      0.00000     0.82815    0.00296     0.83111
    H 31    0.21555      0.00000     0.78283    0.00162     0.78445
    H 32    0.21346      0.00000     0.78461    0.00193     0.78654
    H 33    0.22141      0.00000     0.77651    0.00208     0.77859
    H 34    0.21276      0.00000     0.78575    0.00149     0.78724
    H 35    0.21517      0.00000     0.78320    0.00163     0.78483
    H 36    0.21473      0.00000     0.78409    0.00118     0.78527
    H 37    0.21459      0.00000     0.78427    0.00114     0.78541
    H 38    0.21053      0.00000     0.78809    0.00138     0.78947
    H 39    0.20695      0.00000     0.79170    0.00134     0.79305
    H 40    0.21402      0.00000     0.78483    0.00115     0.78598
    H 41    0.21277      0.00000     0.78604    0.00119     0.78723
    H 42    0.21282      0.00000     0.78565    0.00153     0.78718
 ====================================================================
 * Total *  0.00000     39.99984   103.63341    0.36674   144.00000

 1\1\GINC-NOTCH341\SP\RM062X\def2TZVP\C18H22N2\U6032257\23-Sep-2022\0\\
 # M062X/def2tzvp int=(grid=ultrafine) pop=nbo7 polar prop=efg volume g
 uess=read geom=check\\SecN5.xyz\\0,1\C,0,-1.3954129466,-4.1390240818,4
 .7488423026\N,0,-1.3880664283,-3.2317696323,3.609420713\C,0,-0.2046172
 922,-3.3809238562,2.7716626546\C,0,-0.2186744669,-2.3764558022,1.62179
 90147\C,0,0.9776662885,-2.5635036009,0.6885082244\N,0,1.0243473908,-1.
 5424115001,-0.3568127028\C,0,2.2879718149,-1.2287278852,-0.9318626714\
 C,0,2.552737933,0.0185687315,-1.5455343717\C,0,1.572918129,1.173617612

 Normal termination of Gaussian 16 at Fri Sep 23 16:29:01 2022.
 Gaussian 16:  ES64L-G16RevC.01  3-Jul-2019

 --------------------------------------------------------------------
 # M062X/def2tzvp int=(grid=ultrafine) nmr=giao guess=read geom=check
 --------------------------------------------------------------------

 ---------
 SecN5.xyz
 ---------
 Structure from the checkpoint file:  "SecN5_clust-9.chk"
 Charge =  0 Multiplicity = 1

                         Standard orientation:
 ---------------------------------------------------------------------
 Center     Atomic      Atomic             Coordinates (Angstroms)
 Number     Number       Type             X           Y           Z
 ---------------------------------------------------------------------
      1          6           0       -5.929028   -1.376978    0.468590
      2          7           0       -4.705287   -0.605762    0.639265
      3          6           0       -3.541636   -1.245686    0.038390
      4          6           0       -2.277729   -0.425815    0.286763
      5          6           0       -1.056823   -1.041562   -0.396973
      6          7           0        0.173518   -0.317682   -0.081119
      7          6           0        1.405736   -1.026448   -0.152634
      8          6           0        2.551689   -0.629706    0.576634
      9          6           0        2.653798    0.569785    1.507639
     10          6           0        1.360317    1.326642    1.835784
     11          6           0        0.757498    1.939693    0.605013
     12          6           0        0.187785    1.084417   -0.350474
     13          6           0       -0.377493    1.614752   -1.514888
     14          6           0       -0.372040    2.991189   -1.735238
     15          6           0        0.209912    3.845413   -0.798956
     16          6           0        0.774708    3.314396    0.360491
     17          6           0        3.711471   -1.405963    0.455572
     18          6           0        3.777304   -2.549016   -0.334170
     19          6           0        2.645096   -2.936214   -1.045933
     20          6           0        1.483711   -2.176560   -0.960158
     21          1           0       -5.866032   -2.419775    0.831255
     22          1           0       -6.752673   -0.882302    0.991469
     23          1           0       -6.187764   -1.416419   -0.595630
     24          1           0       -4.529277   -0.471818    1.632452
     25          1           0       -3.390230   -2.284438    0.395856
     26          1           0       -3.723610   -1.321170   -1.042783
     27          1           0       -2.447266    0.595566   -0.063598
     28          1           0       -2.075898   -0.363952    1.364065
     29          1           0       -0.925290   -2.064141   -0.032695
     30          1           0       -1.241891   -1.119851   -1.482249
     31          1           0        3.111950    0.226899    2.443662
     32          1           0        3.362646    1.286930    1.072298
     33          1           0        0.640065    0.637356    2.290399
     34          1           0        1.585663    2.105507    2.571234
     35          1           0       -0.819173    0.949903   -2.249652
     36          1           0       -0.814432    3.392669   -2.641823
     37          1           0        0.219076    4.917731   -0.967314
     38          1           0        1.221186    3.975193    1.098928
     39          1           0        4.588206   -1.100402    1.022009
     40          1           0        4.694820   -3.125994   -0.389089
     41          1           0        2.663506   -3.817746   -1.679723
     42          1           0        0.623144   -2.469668   -1.548808
 ---------------------------------------------------------------------

 SCF Done:  E(RM062X) =  -808.594846654     A.U. after    1 cycles

      1  C    Isotropic =   146.6013   Anisotropy =    60.9216

      2  N    Isotropic =   217.2201   Anisotropy =    48.8913

      3  C    Isotropic =   130.6028   Anisotropy =    55.0149

      4  C    Isotropic =   151.7588   Anisotropy =    32.9148

      5  C    Isotropic =   132.8716   Anisotropy =    42.7638

      6  N    Isotropic =   170.4745   Anisotropy =    81.3542

      7  C    Isotropic =    12.9823   Anisotropy =   180.2297

      8  C    Isotropic =    33.6304   Anisotropy =   200.9352

      9  C    Isotropic =   148.3884   Anisotropy =    24.6069

     10  C    Isotropic =   151.4799   Anisotropy =    24.5453

     11  C    Isotropic =    20.0781   Anisotropy =   221.7209

     12  C    Isotropic =    12.1598   Anisotropy =   174.2941

     13  C    Isotropic =    42.3794   Anisotropy =   209.6207

     14  C    Isotropic =    37.3965   Anisotropy =   209.9324

     15  C    Isotropic =    40.4188   Anisotropy =   208.1854

     16  C    Isotropic =    35.7253   Anisotropy =   187.3799

     17  C    Isotropic =    31.2571   Anisotropy =   193.2037

     18  C    Isotropic =    44.3806   Anisotropy =   201.6226

     19  C    Isotropic =    38.0369   Anisotropy =   208.0853

     20  C    Isotropic =    47.4811   Anisotropy =   192.7979

     21  H    Isotropic =    29.5594   Anisotropy =     9.5274

     22  H    Isotropic =    29.2687   Anisotropy =    10.4384

     23  H    Isotropic =    29.6229   Anisotropy =     8.8787

     24  H    Isotropic =    32.3465   Anisotropy =    10.6965

     25  H    Isotropic =    29.3460   Anisotropy =     4.5339

     26  H    Isotropic =    29.4938   Anisotropy =     3.5999

     27  H    Isotropic =    29.9200   Anisotropy =     9.2693

     28  H    Isotropic =    30.6975   Anisotropy =     4.2631

     29  H    Isotropic =    28.5079   Anisotropy =     4.8375

     30  H    Isotropic =    27.9085   Anisotropy =     6.3930

     31  H    Isotropic =    28.5851   Anisotropy =     8.9964

     32  H    Isotropic =    28.9519   Anisotropy =     7.0984

     33  H    Isotropic =    27.9532   Anisotropy =     4.0526

     34  H    Isotropic =    29.2607   Anisotropy =     9.1459

     35  H    Isotropic =    23.9388   Anisotropy =    10.8178

     36  H    Isotropic =    23.9253   Anisotropy =     6.0582

     37  H    Isotropic =    24.1193   Anisotropy =     5.0796

     38  H    Isotropic =    23.8795   Anisotropy =     7.9909

     39  H    Isotropic =    24.1053   Anisotropy =     9.5182

     40  H    Isotropic =    24.3385   Anisotropy =     4.9690

     41  H    Isotropic =    24.0515   Anisotropy =     6.1284

     42  H    Isotropic =    24.1133   Anisotropy =    11.7731

 The electronic state is 1-A.
 Alpha  occ. eigenvalues --  -14.75893 -14.73110 -10.58101 -10.57483 -10.56991
 Alpha  occ. eigenvalues --  -10.55934 -10.55154 -10.54648 -10.54385 -10.54087
 Alpha  occ. eigenvalues --  -10.54052 -10.53972 -10.53959 -10.53784 -10.53692
 Alpha  occ. eigenvalues --  -10.53629 -10.53500 -10.53447 -10.53174 -10.53159
 Alpha  occ. eigenvalues --   -1.06039  -1.01029  -0.95854  -0.94779  -0.89846
 Alpha  occ. eigenvalues --   -0.87417  -0.85075  -0.84602  -0.81849  -0.80065
 Alpha  occ. eigenvalues --   -0.76764  -0.73253  -0.72587  -0.69428  -0.68220
 Alpha  occ. eigenvalues --   -0.67036  -0.65382  -0.64450  -0.59101  -0.58392
 Alpha  occ. eigenvalues --   -0.56492  -0.55309  -0.54583  -0.53828  -0.52625
 Alpha  occ. eigenvalues --   -0.52239  -0.51076  -0.50395  -0.50224  -0.49535
 Alpha  occ. eigenvalues --   -0.48458  -0.47887  -0.46699  -0.45176  -0.45123
 Alpha  occ. eigenvalues --   -0.44376  -0.43558  -0.43156  -0.41873  -0.41438
 Alpha  occ. eigenvalues --   -0.41124  -0.40436  -0.39671  -0.39454  -0.39267
 Alpha  occ. eigenvalues --   -0.38473  -0.34761  -0.30173  -0.29641  -0.29200
 Alpha  occ. eigenvalues --   -0.28898  -0.25089
 Alpha virt. eigenvalues --    0.01545   0.02557   0.02941   0.03506   0.06113
 Alpha virt. eigenvalues --    0.07118   0.07395   0.08524   0.09141   0.09731
 Alpha virt. eigenvalues --    0.10376   0.11300   0.11730   0.12023   0.12720

 Mulliken charges:
               1
     1  C   -0.333304
     2  N   -0.352477
     3  C   -0.170056
     4  C   -0.244595
     5  C   -0.410853
     6  N   -0.138595
     7  C    0.153128
     8  C    0.042039
     9  C   -0.319014
    10  C   -0.406778
    11  C    0.092899
    12  C    0.087952
    13  C   -0.228742
    14  C   -0.124652
    15  C   -0.158779
    16  C   -0.128922
    17  C   -0.186850
    18  C   -0.161956
    19  C   -0.163234
    20  C   -0.189724
    21  H    0.123878
    22  H    0.140670
    23  H    0.140776
    24  H    0.207131
    25  H    0.121932
    26  H    0.132195
    27  H    0.176220
    28  H    0.139366
    29  H    0.177812
    30  H    0.176629
    31  H    0.154877
    32  H    0.169083
    33  H    0.176580
    34  H    0.148599
    35  H    0.154697
    36  H    0.142137
    37  H    0.140348
    38  H    0.136594
    39  H    0.139453
    40  H    0.138666
    41  H    0.139427
    42  H    0.165443
 Sum of Mulliken charges =  -0.00000

 Dipole moment (field-independent basis, Debye):
    X=             -0.5565    Y=             -0.5629    Z=              0.7316  Tot=              1.0779
 Quadrupole moment (field-independent basis, Debye-Ang):
   XX=           -118.8002   YY=           -116.8039   ZZ=           -116.2181
   XY=              5.4028   XZ=              2.8450   YZ=              2.6837

 1\1\GINC-NOTCH341\SP\RM062X\def2TZVP\C18H22N2\U6032257\23-Sep-2022\0\\
 # M062X/def2tzvp int=(grid=ultrafine) nmr=giao guess=read geom=check\\
 SecN5.xyz\\0,1\C,0,-1.3954129466,-4.1390240818,4.7488423026\N,0,-1.388
 0664283,-3.2317696323,3.609420713\C,0,-0.2046172922,-3.3809238562,2.77
 16626546\C,0,-0.2186744669,-2.3764558022,1.6217990147\C,0,0.9776662885
 ,-2.5635036009,0.6885082244\N,0,1.0243473908,-1.5424115001,-0.35681270
 28\C,0,2.2879718149,-1.2287278852,-0.9318626714\C,0,2.552737933,0.0185
 687315,-1.5455343717\C,0,1.572918129,1.1736176124,-1.6931499759\C,0,0.

 Normal termination of Gaussian 16 at Fri Sep 23 16:32:21 2022.
