 Gaussian 16, Revision C.01,

 ----------------------------------------------------------------------
 # B3LYP/6-31G(d,p) empiricaldispersion=GD3BJ int=(grid=ultrafine) opt
 freq=noraman
 ----------------------------------------------------------------------

 ---------
 SecN5.xyz
 ---------
 Symbolic Z-matrix:
 Charge =  0 Multiplicity = 1

 SCF Done:  E(RB3LYP) =  -808.772569497     A.U. after   14 cycles
 SCF Done:  E(RB3LYP) =  -808.778757053     A.U. after   12 cycles
 SCF Done:  E(RB3LYP) =  -808.775120651     A.U. after   13 cycles
 SCF Done:  E(RB3LYP) =  -808.780100900     A.U. after   12 cycles
 SCF Done:  E(RB3LYP) =  -808.780811124     A.U. after   12 cycles
 SCF Done:  E(RB3LYP) =  -808.780965964     A.U. after   11 cycles
 SCF Done:  E(RB3LYP) =  -808.781164141     A.U. after   10 cycles
 SCF Done:  E(RB3LYP) =  -808.781172129     A.U. after   10 cycles
 SCF Done:  E(RB3LYP) =  -808.781194214     A.U. after    9 cycles
 SCF Done:  E(RB3LYP) =  -808.781201083     A.U. after    9 cycles
 SCF Done:  E(RB3LYP) =  -808.781207691     A.U. after    9 cycles
 SCF Done:  E(RB3LYP) =  -808.781213184     A.U. after    9 cycles
 SCF Done:  E(RB3LYP) =  -808.781215083     A.U. after    8 cycles
 SCF Done:  E(RB3LYP) =  -808.781215386     A.U. after    7 cycles
 SCF Done:  E(RB3LYP) =  -808.781215531     A.U. after    7 cycles
 Optimization completed.
    -- Stationary point found.
 Normal termination of Gaussian 16 at Fri Sep 23 16:20:08 2022.

 ----------------------------------------------------------------------
 #N Geom=AllCheck Guess=TCheck SCRF=Check GenChk RB3LYP/6-31G(d,p) Freq
 ----------------------------------------------------------------------

 Structure from the checkpoint file:  "SecN5_clust-13.chk"
 ---------
 SecN5.xyz
 ---------
 Charge =  0 Multiplicity = 1

 SCF Done:  E(RB3LYP) =  -808.781215531     A.U. after    1 cycles

                      1                      2                      3
                      A                      A                      A
 Frequencies --     21.3820                42.2060                64.7569
 Red. masses --      4.3550                 4.3978                 3.4391
 Frc consts  --      0.0012                 0.0046                 0.0085
 IR Inten    --      0.1056                 0.3694                 0.9984

                      4                      5                      6
                      A                      A                      A
 Frequencies --     85.0866                98.3291               107.5928
 Red. masses --      3.0590                 3.3650                 3.1006
 Frc consts  --      0.0130                 0.0192                 0.0211
 IR Inten    --      3.8949                 1.6415                 1.1520

                      7                      8                      9
                      A                      A                      A
 Frequencies --    129.7664               156.6343               186.1897
 Red. masses --      2.6321                 2.4172                 3.5356
 Frc consts  --      0.0261                 0.0349                 0.0722
 IR Inten    --      5.6701                 0.1610                 0.0866

                     10                     11                     12
                      A                      A                      A
 Frequencies --    234.1161               241.7535               255.2779
 Red. masses --      2.1730                 3.1543                 1.9654
 Frc consts  --      0.0702                 0.1086                 0.0755
 IR Inten    --      0.2225                 1.3103                 1.8211

                     13                     14                     15
                      A                      A                      A
 Frequencies --    274.6697               306.2165               316.8841
 Red. masses --      1.8958                 2.7652                 4.1731
 Frc consts  --      0.0843                 0.1528                 0.2469
 IR Inten    --      1.1844                 0.5247                 2.4183

                     16                     17                     18
                      A                      A                      A
 Frequencies --    358.5397               361.7697               380.8005
 Red. masses --      3.8975                 2.4362                 3.1321
 Frc consts  --      0.2952                 0.1879                 0.2676
 IR Inten    --      2.3803                 1.4148                 1.6799

                     19                     20                     21
                      A                      A                      A
 Frequencies --    439.2172               449.4586               470.4855
 Red. masses --      4.7551                 3.0061                 3.3889
 Frc consts  --      0.5405                 0.3578                 0.4420
 IR Inten    --      8.8676                 3.4678                 2.8992

                     22                     23                     24
                      A                      A                      A
 Frequencies --    484.7294               506.2025               521.8557
 Red. masses --      3.5683                 2.7179                 2.3233
 Frc consts  --      0.4940                 0.4103                 0.3728
 IR Inten    --      1.6516                 2.0815                 3.6276

                     25                     26                     27
                      A                      A                      A
 Frequencies --    549.6429               578.8358               591.7028
 Red. masses --      3.7655                 4.9325                 3.7278
 Frc consts  --      0.6703                 0.9737                 0.7690
 IR Inten    --      2.3320                 1.2932                 1.3141

                     28                     29                     30
                      A                      A                      A
 Frequencies --    613.7165               632.7665               699.3453
 Red. masses --      2.8755                 5.6669                 4.8026
 Frc consts  --      0.6381                 1.3368                 1.3839
 IR Inten    --      7.7947                 1.8675                 2.4657

                     31                     32                     33
                      A                      A                      A
 Frequencies --    727.0744               757.2824               764.1997
 Red. masses --      3.1741                 2.1506                 1.5049
 Frc consts  --      0.9886                 0.7266                 0.5178
 IR Inten    --      1.8229                 9.7986                16.5270

                     34                     35                     36
                      A                      A                      A
 Frequencies --    777.9284               780.3388               786.3553
 Red. masses --      1.9922                 1.8752                 2.7369
 Frc consts  --      0.7103                 0.6728                 0.9971
 IR Inten    --     11.5250                94.3916                18.2262

                     37                     38                     39
                      A                      A                      A
 Frequencies --    804.9699               843.8671               866.4510
 Red. masses --      2.5270                 1.6043                 1.3581
 Frc consts  --      0.9647                 0.6731                 0.6007
 IR Inten    --     35.1272                31.5060                 1.0054

                     40                     41                     42
                      A                      A                      A
 Frequencies --    877.7976               895.4227               920.6067
 Red. masses --      1.4971                 2.4521                 2.1196
 Frc consts  --      0.6797                 1.1584                 1.0584
 IR Inten    --      2.0827                14.4628                 3.8425

                     43                     44                     45
                      A                      A                      A
 Frequencies --    929.7129               942.9672               944.0009
 Red. masses --      1.9798                 1.3991                 1.5030
 Frc consts  --      1.0083                 0.7330                 0.7892
 IR Inten    --      8.1186                 4.0383                 3.5471

                     46                     47                     48
                      A                      A                      A
 Frequencies --    965.1927               975.2992               979.1267
 Red. masses --      1.6376                 1.2531                 1.2556
 Frc consts  --      0.8988                 0.7023                 0.7092
 IR Inten    --      2.2184                 0.3837                 0.0792

                     49                     50                     51
                      A                      A                      A
 Frequencies --    992.0243              1000.1813              1050.8911
 Red. masses --      2.1983                 2.0988                 2.4550
 Frc consts  --      1.2746                 1.2370                 1.5974
 IR Inten    --      0.4903                 1.4233                 1.0235

                     52                     53                     54
                      A                      A                      A
 Frequencies --   1057.9441              1075.5630              1089.0934
 Red. masses --      2.1830                 2.2330                 2.8547
 Frc consts  --      1.4395                 1.5220                 1.9950
 IR Inten    --      8.9465                 3.9424                 0.7407

                     55                     56                     57
                      A                      A                      A
 Frequencies --   1092.2550              1110.5093              1139.7158
 Red. masses --      2.2216                 1.7457                 1.8966
 Frc consts  --      1.5616                 1.2684                 1.4515
 IR Inten    --      8.1232                 5.1220                16.7971

                     58                     59                     60
                      A                      A                      A
 Frequencies --   1151.5190              1157.8370              1172.9985
 Red. masses --      1.9146                 2.2180                 1.7955
 Frc consts  --      1.4958                 1.7519                 1.4556
 IR Inten    --     24.0981                 5.4117                31.5095

                     61                     62                     63
                      A                      A                      A
 Frequencies --   1189.3889              1193.9192              1201.4153
 Red. masses --      1.1059                 1.1631                 1.8075
 Frc consts  --      0.9218                 0.9768                 1.5371
 IR Inten    --      0.6582                 0.0593                13.1993

                     64                     65                     66
                      A                      A                      A
 Frequencies --   1204.8610              1210.0601              1231.9368
 Red. masses --      1.7128                 1.2596                 1.8887
 Frc consts  --      1.4650                 1.0866                 1.6889
 IR Inten    --      2.2300                 2.2812                20.5871

                     67                     68                     69
                      A                      A                      A
 Frequencies --   1241.4695              1253.6411              1265.1984
 Red. masses --      1.7692                 1.5647                 1.9623
 Frc consts  --      1.6065                 1.4489                 1.8507
 IR Inten    --     10.9282                25.9432                59.1102

                     70                     71                     72
                      A                      A                      A
 Frequencies --   1286.8604              1304.9090              1312.5573
 Red. masses --      1.4909                 1.4095                 1.2890
 Frc consts  --      1.4546                 1.4141                 1.3083
 IR Inten    --     30.3712                 1.1196                 3.3080

                     73                     74                     75
                      A                      A                      A
 Frequencies --   1329.2097              1343.2491              1354.5457
 Red. masses --      1.8689                 4.4682                 2.4043
 Frc consts  --      1.9455                 4.7501                 2.5991
 IR Inten    --     16.5562                28.3389                24.2807

                     76                     77                     78
                      A                      A                      A
 Frequencies --   1371.0898              1383.8757              1387.5358
 Red. masses --      3.0437                 1.3546                 1.4351
 Frc consts  --      3.3712                 1.5285                 1.6278
 IR Inten    --     35.2856                 8.1634                 5.9180

                     79                     80                     81
                      A                      A                      A
 Frequencies --   1399.8640              1407.7719              1419.3707
 Red. masses --      1.4722                 1.3822                 1.4149
 Frc consts  --      1.6997                 1.6140                 1.6794
 IR Inten    --      8.3192                 4.0819                11.5263

                     82                     83                     84
                      A                      A                      A
 Frequencies --   1471.2751              1486.8064              1490.3180
 Red. masses --      1.1807                 1.8548                 1.2491
 Frc consts  --      1.5058                 2.4158                 1.6345
 IR Inten    --      1.3508                29.1588                 3.8981

                     85                     86                     87
                      A                      A                      A
 Frequencies --   1491.0454              1498.9633              1499.5790
 Red. masses --      1.1000                 1.1124                 2.2830
 Frc consts  --      1.4408                 1.4726                 3.0248
 IR Inten    --      4.8273                16.6687                19.2002

                     88                     89                     90
                      A                      A                      A
 Frequencies --   1507.2495              1514.5458              1523.3484
 Red. masses --      1.1576                 1.1380                 1.1958
 Frc consts  --      1.5494                 1.5379                 1.6349
 IR Inten    --      1.5453                 6.4957                40.7785

                     91                     92                     93
                      A                      A                      A
 Frequencies --   1529.6625              1534.5880              1536.7621
 Red. masses --      1.1267                 1.2520                 1.5632
 Frc consts  --      1.5533                 1.7372                 2.1751
 IR Inten    --     47.9248                33.2033                45.8071

                     94                     95                     96
                      A                      A                      A
 Frequencies --   1546.1122              1630.6351              1642.2611
 Red. masses --      2.4630                 6.1123                 6.4982
 Frc consts  --      3.4689                 9.5756                10.3258
 IR Inten    --     17.7136                15.0382                 6.0686

                     97                     98                     99
                      A                      A                      A
 Frequencies --   1655.8351              1662.2489              2896.9745
 Red. masses --      5.8761                 5.7608                 1.0741
 Frc consts  --      9.4924                 9.3783                 5.3112
 IR Inten    --     19.0698                 8.7895                83.8921

                    100                    101                    102
                      A                      A                      A
 Frequencies --   2946.5400              2990.5021              3019.3509
 Red. masses --      1.0597                 1.0722                 1.0617
 Frc consts  --      5.4210                 5.6498                 5.7025
 IR Inten    --    120.7558                50.4719                28.9724

                    103                    104                    105
                      A                      A                      A
 Frequencies --   3038.8053              3047.7903              3056.9278
 Red. masses --      1.0834                 1.0822                 1.0675
 Frc consts  --      5.8943                 5.9229                 5.8775
 IR Inten    --     32.5207                26.1073                60.6095

                    106                    107                    108
                      A                      A                      A
 Frequencies --   3058.5055              3063.0379              3092.3725
 Red. masses --      1.0788                 1.0748                 1.0917
 Frc consts  --      5.9455                 5.9415                 6.1508
 IR Inten    --     26.6342                53.3337                14.5324

                    109                    110                    111
                      A                      A                      A
 Frequencies --   3102.0283              3109.7040              3114.7561
 Red. masses --      1.1038                 1.0980                 1.1013
 Frc consts  --      6.2578                 6.2557                 6.2950
 IR Inten    --      8.3845                27.8637                27.1894

                    112                    113                    114
                      A                      A                      A
 Frequencies --   3165.6053              3174.1642              3184.5968
 Red. masses --      1.0877                 1.0866                 1.0876
 Frc consts  --      6.4219                 6.4502                 6.4986
 IR Inten    --     11.6651                 6.2917                 8.4618

                    115                    116                    117
                      A                      A                      A
 Frequencies --   3184.9229              3200.6869              3203.4026
 Red. masses --      1.0885                 1.0932                 1.0943
 Frc consts  --      6.5052                 6.5984                 6.6163
 IR Inten    --     12.0041                32.1710                31.2349

                    118                    119                    120
                      A                      A                      A
 Frequencies --   3210.5269              3215.9944              3543.2395
 Red. masses --      1.0959                 1.0940                 1.0744
 Frc consts  --      6.6555                 6.6665                 7.9472
 IR Inten    --     17.5129                13.3462                12.2799

 - Thermochemistry -
 -------------------
 Temperature   298.150 Kelvin.  Pressure   1.00000 Atm.
 Atom     1 has atomic number  6 and mass  12.00000

 Molecular mass:   266.17830 amu.
 Principal axes and moments of inertia in atomic units:
                           1         2         3
     Eigenvalues --  4717.216265568.903937211.97595
           X            0.99949  -0.03115  -0.00711
           Y            0.03112   0.99950  -0.00513
           Z            0.00727   0.00491   0.99996
 This molecule is an asymmetric top.
 Rotational symmetry number  1.
 Warning -- assumption of classical behavior for rotation
           may cause significant error
 Rotational temperatures (Kelvin)      0.01836     0.01555     0.01201
 Rotational constants (GHZ):           0.38259     0.32407     0.25024
 Zero-point vibrational energy     962536.0 (Joules/Mol)
                                  230.05163 (Kcal/Mol)
 Warning -- explicit consideration of  28 degrees of freedom as
           vibrations may cause significant error
 Vibrational temperatures:     30.76    60.72    93.17   122.42   141.47
          (Kelvin)            154.80   186.70   225.36   267.89   336.84
                              347.83   367.29   395.19   440.58   455.93
                              515.86   520.51   547.89   631.94   646.67
                              676.92   697.42   728.31   750.83   790.81
                              832.82   851.33   883.00   910.41  1006.20
                             1046.10  1089.56  1099.51  1119.27  1122.73
                             1131.39  1158.17  1214.14  1246.63  1262.95
                             1288.31  1324.55  1337.65  1356.72  1358.21
                             1388.70  1403.24  1408.74  1427.30  1439.04
                             1512.00  1522.15  1547.50  1566.96  1571.51
                             1597.78  1639.80  1656.78  1665.87  1687.68
                             1711.27  1717.78  1728.57  1733.53  1741.01
                             1772.48  1786.20  1803.71  1820.34  1851.51
                             1877.47  1888.48  1912.44  1932.64  1948.89
                             1972.69  1991.09  1996.35  2014.09  2025.47
                             2042.16  2116.84  2139.18  2144.24  2145.28
                             2156.67  2157.56  2168.60  2179.09  2191.76
                             2200.84  2207.93  2211.06  2224.51  2346.12
                             2362.85  2382.38  2391.61  4168.10  4239.41
                             4302.67  4344.17  4372.16  4385.09  4398.24
                             4400.51  4407.03  4449.23  4463.13  4474.17
                             4481.44  4554.60  4566.91  4581.92  4582.39
                             4605.07  4608.98  4619.23  4627.10  5097.93

 Zero-point correction=                           0.366611 (Hartree/Particle)
 Thermal correction to Energy=                    0.384075
 Thermal correction to Enthalpy=                  0.385020
 Thermal correction to Gibbs Free Energy=         0.320863
 Sum of electronic and zero-point Energies=           -808.414605
 Sum of electronic and thermal Energies=              -808.397140
 Sum of electronic and thermal Enthalpies=            -808.396196
 Sum of electronic and thermal Free Energies=         -808.460352

                     E (Thermal)             CV                S
                      KCal/Mol        Cal/Mol-Kelvin    Cal/Mol-Kelvin
 Total                  241.011             70.172            135.029
 Electronic               0.000              0.000              0.000
 Translational            0.889              2.981             42.636
 Rotational               0.889              2.981             33.604
 Vibrational            239.234             64.211             58.788
 Vibration     1          0.593              1.985              6.502
 Vibration     2          0.595              1.980              5.153
 Vibration     3          0.597              1.971              4.307
 Vibration     4          0.601              1.960              3.770
 Vibration     5          0.604              1.950              3.487
 Vibration     6          0.606              1.943              3.312
 Vibration     7          0.612              1.924              2.950
 Vibration     8          0.620              1.895              2.590
 Vibration     9          0.632              1.859              2.265
 Vibration    10          0.654              1.789              1.847
 Vibration    11          0.658              1.776              1.790
 Vibration    12          0.666              1.754              1.694
 Vibration    13          0.677              1.720              1.567
 Vibration    14          0.697              1.662              1.383
 Vibration    15          0.704              1.641              1.326
 Vibration    16          0.733              1.558              1.128
 Vibration    17          0.736              1.551              1.114
 Vibration    18          0.751              1.511              1.036
 Vibration    19          0.799              1.385              0.829
 Vibration    20          0.808              1.362              0.797
 Vibration    21          0.828              1.316              0.736
 Vibration    22          0.841              1.284              0.697
 Vibration    23          0.861              1.236              0.643
 Vibration    24          0.877              1.202              0.606
 Vibration    25          0.905              1.140              0.545
 Vibration    26          0.935              1.077              0.488
 Vibration    27          0.949              1.049              0.464
 Vibration    28          0.973              1.003              0.427

 Optimization completed.
    -- Stationary point found.
 Normal termination of Gaussian 16 at Fri Sep 23 16:24:18 2022.

 ----------------------------------------------------------------------
 # M062X/def2tzvp int=(grid=ultrafine) pop=nbo7 polar prop=efg volume g
 uess=read geom=check
 ----------------------------------------------------------------------

 ---------
 SecN5.xyz
 ---------
 Structure from the checkpoint file:  "SecN5_clust-13.chk"
 Charge =  0 Multiplicity = 1

 SCF Done:  E(RM062X) =  -808.595100977     A.U. after   11 cycles

  Exact polarizability:     252.416       3.349     188.554       1.649     -10.377     214.183
 Approx polarizability:     298.638       3.681     229.848       4.808     -17.870     300.399

 Summary of Natural Population Analysis:

                                     Natural Population
             Natural    ---------------------------------------------
  Atom No    Charge        Core      Valence    Rydberg      Total
 --------------------------------------------------------------------
    C  1   -0.40808      1.99999     4.39634    0.01175     6.40808
    N  2   -0.63351      1.99999     5.60698    0.02654     7.63351
    C  3   -0.20766      1.99999     4.19342    0.01425     6.20766
    C  4   -0.41161      1.99999     4.39995    0.01166     6.41161
    C  5   -0.21155      1.99999     4.19787    0.01368     6.21155
    N  6   -0.47227      1.99999     5.44511    0.02716     7.47227
    C  7    0.16221      1.99999     3.81823    0.01957     5.83779
    C  8   -0.02471      1.99999     4.00674    0.01798     6.02471
    C  9   -0.43080      1.99999     4.41864    0.01217     6.43080
    C 10   -0.40582      1.99999     4.39490    0.01093     6.40582
    C 11   -0.04606      1.99999     4.02987    0.01621     6.04606
    C 12    0.16610      1.99999     3.81600    0.01791     5.83390
    C 13   -0.25140      1.99999     4.23511    0.01629     6.25140
    C 14   -0.20483      1.99999     4.18824    0.01659     6.20483
    C 15   -0.23017      1.99999     4.21350    0.01667     6.23017
    C 16   -0.19013      1.99999     4.17412    0.01601     6.19013
    C 17   -0.20133      1.99999     4.18509    0.01626     6.20133
    C 18   -0.21811      1.99999     4.20174    0.01637     6.21811
    C 19   -0.20957      1.99999     4.19321    0.01637     6.20957
    C 20   -0.23591      1.99999     4.21994    0.01598     6.23591
    H 21    0.18893      0.00000     0.80955    0.00153     0.81107
    H 22    0.19957      0.00000     0.79929    0.00114     0.80043
    H 23    0.16247      0.00000     0.83475    0.00277     0.83753
    H 24    0.36391      0.00000     0.63341    0.00269     0.63609
    H 25    0.15144      0.00000     0.84495    0.00361     0.84856
    H 26    0.19062      0.00000     0.80747    0.00191     0.80938
    H 27    0.21019      0.00000     0.78847    0.00134     0.78981
    H 28    0.22059      0.00000     0.77763    0.00177     0.77941
    H 29    0.20887      0.00000     0.78921    0.00192     0.79113
    H 30    0.18053      0.00000     0.81684    0.00263     0.81947
    H 31    0.21122      0.00000     0.78730    0.00148     0.78878
    H 32    0.24778      0.00000     0.74974    0.00248     0.75222
    H 33    0.21363      0.00000     0.78443    0.00194     0.78637
    H 34    0.21543      0.00000     0.78296    0.00160     0.78457
    H 35    0.21260      0.00000     0.78587    0.00153     0.78740
    H 36    0.21336      0.00000     0.78546    0.00119     0.78664
    H 37    0.21445      0.00000     0.78441    0.00114     0.78555
    H 38    0.20771      0.00000     0.79094    0.00135     0.79229
    H 39    0.21055      0.00000     0.78808    0.00138     0.78945
    H 40    0.21423      0.00000     0.78463    0.00114     0.78577
    H 41    0.21383      0.00000     0.78498    0.00119     0.78617
    H 42    0.21328      0.00000     0.78505    0.00166     0.78672
 ====================================================================
 * Total *  0.00000     39.99984   103.63041    0.36974   144.00000

 1\1\GINC-NOTCH163\SP\RM062X\def2TZVP\C18H22N2\U6032257\23-Sep-2022\0\\
 # M062X/def2tzvp int=(grid=ultrafine) pop=nbo7 polar prop=efg volume g
 uess=read geom=check\\SecN5.xyz\\0,1\C,0,-0.9002016413,-4.5899245357,2
 .0309013451\N,0,-0.0098767843,-3.4841655724,1.7094573223\C,0,0.3282057
 802,-2.6730958162,2.872575226\C,0,1.1656204701,-1.4428399474,2.5162480
 777\C,0,0.4496782814,-0.4777524649,1.5583808973\N,0,0.6016773918,-0.89
 22318108,0.160316317\C,0,1.9321356247,-0.8824429362,-0.3662433258\C,0,
 2.348218771,-1.9564588014,-1.1695309166\C,0,1.377716223,-3.0684374696,

 Normal termination of Gaussian 16 at Fri Sep 23 16:37:54 2022.
 Gaussian 16:  ES64L-G16RevC.01  3-Jul-2019

 --------------------------------------------------------------------
 # M062X/def2tzvp int=(grid=ultrafine) nmr=giao guess=read geom=check
 --------------------------------------------------------------------

 ---------
 SecN5.xyz
 ---------
 Structure from the checkpoint file:  "SecN5_clust-13.chk"
 Charge =  0 Multiplicity = 1

                         Standard orientation:
 ---------------------------------------------------------------------
 Center     Atomic      Atomic             Coordinates (Angstroms)
 Number     Number       Type             X           Y           Z
 ---------------------------------------------------------------------
      1          6           0       -1.291442    3.656712    1.577635
      2          7           0       -0.438123    2.770390    0.799825
      3          6           0        0.001104    3.365828   -0.456166
      4          6           0        0.798098    2.393309   -1.328387
      5          6           0       -0.005452    1.150465   -1.742059
      6          7           0        0.020563    0.118906   -0.700574
      7          6           0        1.297683   -0.453193   -0.402003
      8          6           0        1.643153   -0.669261    0.941824
      9          6           0        0.655921   -0.293065    2.008375
     10          6           0       -0.573915   -1.211043    2.005453
     11          6           0       -1.431419   -1.278155    0.749025
     12          6           0       -1.137353   -0.683787   -0.500506
     13          6           0       -2.035439   -0.868435   -1.568539
     14          6           0       -3.214480   -1.589312   -1.418798
     15          6           0       -3.515442   -2.170000   -0.189061
     16          6           0       -2.619848   -2.012510    0.863071
     17          6           0        2.885459   -1.235138    1.237388
     18          6           0        3.791290   -1.558479    0.227645
     19          6           0        3.449403   -1.322450   -1.103010
     20          6           0        2.205287   -0.777162   -1.416294
     21          1           0       -0.711553    4.525242    1.910639
     22          1           0       -1.648861    3.133653    2.469260
     23          1           0       -2.169761    4.038932    1.025672
     24          1           0       -0.927893    1.902739    0.602577
     25          1           0       -0.850597    3.755704   -1.050980
     26          1           0        0.627901    4.235412   -0.218003
     27          1           0        1.108459    2.927373   -2.234004
     28          1           0        1.710842    2.084287   -0.810235
     29          1           0       -1.049213    1.439970   -1.890152
     30          1           0        0.346756    0.772189   -2.713376
     31          1           0        1.132109   -0.366453    2.991698
     32          1           0        0.361937    0.752104    1.866380
     33          1           0       -0.232452   -2.230488    2.230431
     34          1           0       -1.227370   -0.926833    2.839919
     35          1           0       -1.792063   -0.455548   -2.540282
     36          1           0       -3.883314   -1.707257   -2.266005
     37          1           0       -4.429790   -2.737910   -0.050399
     38          1           0       -2.847264   -2.463379    1.826281
     39          1           0        3.149683   -1.404770    2.277830
     40          1           0        4.757492   -1.985154    0.478321
     41          1           0        4.144030   -1.570219   -1.899902
     42          1           0        1.938211   -0.610609   -2.453977
 ---------------------------------------------------------------------

 SCF Done:  E(RM062X) =  -808.595100977     A.U. after    1 cycles

      1  C    Isotropic =   147.0205   Anisotropy =    60.7560

      2  N    Isotropic =   213.3209   Anisotropy =    47.1159

      3  C    Isotropic =   127.2931   Anisotropy =    35.0048

      4  C    Isotropic =   155.6083   Anisotropy =    12.5046

      5  C    Isotropic =   130.3479   Anisotropy =    35.1298

      6  N    Isotropic =   171.0922   Anisotropy =    82.0319

      7  C    Isotropic =    11.8846   Anisotropy =   171.7619

      8  C    Isotropic =    19.0183   Anisotropy =   222.6366

      9  C    Isotropic =   151.6705   Anisotropy =    25.3603

     10  C    Isotropic =   149.3290   Anisotropy =    23.3690

     11  C    Isotropic =    31.5150   Anisotropy =   203.0368

     12  C    Isotropic =    13.9465   Anisotropy =   180.1616

     13  C    Isotropic =    45.7291   Anisotropy =   191.3858

     14  C    Isotropic =    37.3881   Anisotropy =   206.2803

     15  C    Isotropic =    43.2340   Anisotropy =   200.2216

     16  C    Isotropic =    31.2004   Anisotropy =   194.6055

     17  C    Isotropic =    35.0970   Anisotropy =   186.6028

     18  C    Isotropic =    40.1797   Anisotropy =   207.7258

     19  C    Isotropic =    37.6435   Anisotropy =   208.2666

     20  C    Isotropic =    43.2294   Anisotropy =   209.0940

     21  H    Isotropic =    29.7505   Anisotropy =    10.3895

     22  H    Isotropic =    29.2224   Anisotropy =     9.4027

     23  H    Isotropic =    29.7613   Anisotropy =     9.9187

     24  H    Isotropic =    31.1705   Anisotropy =    15.9343

     25  H    Isotropic =    29.4061   Anisotropy =     7.7517

     26  H    Isotropic =    29.3807   Anisotropy =     8.2849

     27  H    Isotropic =    30.5727   Anisotropy =    10.5471

     28  H    Isotropic =    30.2871   Anisotropy =     5.3665

     29  H    Isotropic =    28.5912   Anisotropy =     4.2035

     30  H    Isotropic =    27.4494   Anisotropy =     8.3795

     31  H    Isotropic =    29.3812   Anisotropy =     9.1063

     32  H    Isotropic =    27.0315   Anisotropy =    10.0543

     33  H    Isotropic =    28.9527   Anisotropy =     7.6266

     34  H    Isotropic =    28.5866   Anisotropy =     8.6384

     35  H    Isotropic =    24.1839   Anisotropy =    11.5178

     36  H    Isotropic =    24.0550   Anisotropy =     5.9090

     37  H    Isotropic =    24.2788   Anisotropy =     4.9596

     38  H    Isotropic =    24.0530   Anisotropy =     9.5734

     39  H    Isotropic =    23.8895   Anisotropy =     8.3750

     40  H    Isotropic =    24.1120   Anisotropy =     5.1173

     41  H    Isotropic =    23.9583   Anisotropy =     5.8381

     42  H    Isotropic =    23.8913   Anisotropy =    11.3605

 The electronic state is 1-A.
 Alpha  occ. eigenvalues --  -14.75903 -14.72600 -10.58243 -10.57464 -10.57081
 Alpha  occ. eigenvalues --  -10.55601 -10.54823 -10.54808 -10.54230 -10.53973
 Alpha  occ. eigenvalues --  -10.53966 -10.53891 -10.53821 -10.53800 -10.53683
 Alpha  occ. eigenvalues --  -10.53682 -10.53656 -10.53361 -10.53300 -10.52916
 Alpha  occ. eigenvalues --   -1.06066  -1.00593  -0.95852  -0.94756  -0.89646
 Alpha  occ. eigenvalues --   -0.87100  -0.85092  -0.84605  -0.81793  -0.79948
 Alpha  occ. eigenvalues --   -0.76753  -0.73256  -0.73045  -0.69373  -0.68286
 Alpha  occ. eigenvalues --   -0.66566  -0.65186  -0.64302  -0.59213  -0.58474
 Alpha  occ. eigenvalues --   -0.56447  -0.55138  -0.54412  -0.53712  -0.52633
 Alpha  occ. eigenvalues --   -0.51783  -0.50812  -0.50432  -0.50022  -0.49484
 Alpha  occ. eigenvalues --   -0.48420  -0.47969  -0.46072  -0.45019  -0.44866
 Alpha  occ. eigenvalues --   -0.44372  -0.44269  -0.43131  -0.41908  -0.41607
 Alpha  occ. eigenvalues --   -0.41058  -0.40316  -0.39576  -0.39334  -0.38870
 Alpha  occ. eigenvalues --   -0.38366  -0.34635  -0.30162  -0.29744  -0.28875
 Alpha  occ. eigenvalues --   -0.28593  -0.25188
 Alpha virt. eigenvalues --    0.01422   0.02605   0.02890   0.03279   0.06010
 Alpha virt. eigenvalues --    0.06993   0.08124   0.09020   0.09436   0.09784
 Alpha virt. eigenvalues --    0.10274   0.11055   0.11519   0.12747   0.12841

 Mulliken charges:
               1
     1  C   -0.324303
     2  N   -0.372227
     3  C   -0.200105
     4  C   -0.211056
     5  C   -0.401142
     6  N   -0.138382
     7  C    0.052861
     8  C    0.141723
     9  C   -0.492576
    10  C   -0.317628
    11  C    0.040162
    12  C    0.135969
    13  C   -0.223666
    14  C   -0.151408
    15  C   -0.168064
    16  C   -0.160778
    17  C   -0.124476
    18  C   -0.155763
    19  C   -0.136188
    20  C   -0.210558
    21  H    0.140802
    22  H    0.136729
    23  H    0.129325
    24  H    0.231582
    25  H    0.132760
    26  H    0.135961
    27  H    0.140000
    28  H    0.172442
    29  H    0.192255
    30  H    0.174786
    31  H    0.143647
    32  H    0.215807
    33  H    0.170014
    34  H    0.156474
    35  H    0.172088
    36  H    0.139776
    37  H    0.139540
    38  H    0.141236
    39  H    0.134360
    40  H    0.140061
    41  H    0.140652
    42  H    0.137308
 Sum of Mulliken charges =  -0.00000

 Dipole moment (field-independent basis, Debye):
    X=             -0.3293    Y=              0.5976    Z=             -0.5282  Tot=              0.8629
 Quadrupole moment (field-independent basis, Debye-Ang):
   XX=           -117.6084   YY=           -122.3401   ZZ=           -111.8255
   XY=             -1.1963   XZ=             -0.8273   YZ=             -4.4075

 1\1\GINC-NOTCH163\SP\RM062X\def2TZVP\C18H22N2\U6032257\23-Sep-2022\0\\
 # M062X/def2tzvp int=(grid=ultrafine) nmr=giao guess=read geom=check\\
 SecN5.xyz\\0,1\C,0,-0.9002016413,-4.5899245357,2.0309013451\N,0,-0.009
 8767843,-3.4841655724,1.7094573223\C,0,0.3282057802,-2.6730958162,2.87
 2575226\C,0,1.1656204701,-1.4428399474,2.5162480777\C,0,0.4496782814,-
 0.4777524649,1.5583808973\N,0,0.6016773918,-0.8922318108,0.160316317\C
 ,0,1.9321356247,-0.8824429362,-0.3662433258\C,0,2.348218771,-1.9564588
 014,-1.1695309166\C,0,1.377716223,-3.0684374696,-1.4439597412\C,0,0.22

 Normal termination of Gaussian 16 at Fri Sep 23 16:43:34 2022.
