 Gaussian 16, Revision C.01,

 ----------------------------------------------------------------------
 # B3LYP/6-31G(d,p) empiricaldispersion=GD3BJ int=(grid=ultrafine) opt
 freq=noraman
 ----------------------------------------------------------------------

 ---------
 SecN5.xyz
 ---------
 Symbolic Z-matrix:
 Charge =  0 Multiplicity = 1

 SCF Done:  E(RB3LYP) =  -808.754883542     A.U. after   14 cycles
 SCF Done:  E(RB3LYP) =  -808.765537682     A.U. after   12 cycles
 SCF Done:  E(RB3LYP) =  -808.764467625     A.U. after   12 cycles
 SCF Done:  E(RB3LYP) =  -808.763285681     A.U. after   12 cycles
 SCF Done:  E(RB3LYP) =  -808.762227774     A.U. after   12 cycles
 SCF Done:  E(RB3LYP) =  -808.767241250     A.U. after   10 cycles
 SCF Done:  E(RB3LYP) =  -808.768795069     A.U. after   12 cycles
 SCF Done:  E(RB3LYP) =  -808.770396808     A.U. after   11 cycles
 SCF Done:  E(RB3LYP) =  -808.770756949     A.U. after   11 cycles
 SCF Done:  E(RB3LYP) =  -808.770414133     A.U. after   12 cycles
 SCF Done:  E(RB3LYP) =  -808.771190109     A.U. after   10 cycles
 SCF Done:  E(RB3LYP) =  -808.771202124     A.U. after   10 cycles
 SCF Done:  E(RB3LYP) =  -808.771207033     A.U. after    8 cycles
 SCF Done:  E(RB3LYP) =  -808.771207415     A.U. after    7 cycles
 SCF Done:  E(RB3LYP) =  -808.771207553     A.U. after    7 cycles
 SCF Done:  E(RB3LYP) =  -808.771207587     A.U. after    7 cycles
 SCF Done:  E(RB3LYP) =  -808.771207594     A.U. after    6 cycles
 Optimization completed.
    -- Stationary point found.
 Normal termination of Gaussian 16 at Fri Sep 23 16:20:00 2022.

 ----------------------------------------------------------------------
 #N Geom=AllCheck Guess=TCheck SCRF=Check GenChk RB3LYP/6-31G(d,p) Freq
 ----------------------------------------------------------------------

 Structure from the checkpoint file:  "SecN5_clust-14.chk"
 ---------
 SecN5.xyz
 ---------
 Charge =  0 Multiplicity = 1

 SCF Done:  E(RB3LYP) =  -808.771207594     A.U. after    1 cycles

                      1                      2                      3
                      A                      A                      A
 Frequencies --     33.8676                38.8159                56.8342
 Red. masses --      3.8003                 4.2088                 4.2318
 Frc consts  --      0.0026                 0.0037                 0.0081
 IR Inten    --      0.1671                 0.1489                 0.0205

                      4                      5                      6
                      A                      A                      A
 Frequencies --     95.1513               117.4754               141.0306
 Red. masses --      3.2791                 2.9798                 3.4404
 Frc consts  --      0.0175                 0.0242                 0.0403
 IR Inten    --      0.2780                 2.3359                 0.0267

                      7                      8                      9
                      A                      A                      A
 Frequencies --    158.2453               165.6861               188.8653
 Red. masses --      3.7136                 2.0171                 2.8283
 Frc consts  --      0.0548                 0.0326                 0.0594
 IR Inten    --      0.2227                 0.0440                 1.7661

                     10                     11                     12
                      A                      A                      A
 Frequencies --    217.4148               254.3751               274.1319
 Red. masses --      1.7428                 2.6980                 2.7080
 Frc consts  --      0.0485                 0.1029                 0.1199
 IR Inten    --      0.3678                 0.6133                 1.7163

                     13                     14                     15
                      A                      A                      A
 Frequencies --    296.1721               318.3328               337.6155
 Red. masses --      3.5479                 4.4430                 3.5373
 Frc consts  --      0.1834                 0.2653                 0.2376
 IR Inten    --      0.5826                 0.1708                 0.4236

                     16                     17                     18
                      A                      A                      A
 Frequencies --    352.7843               372.0406               423.3219
 Red. masses --      3.4220                 3.1856                 2.3570
 Frc consts  --      0.2509                 0.2598                 0.2489
 IR Inten    --      0.5278                 4.8517                 3.6000

                     19                     20                     21
                      A                      A                      A
 Frequencies --    457.9789               475.7861               479.2161
 Red. masses --      2.6313                 2.9945                 3.2205
 Frc consts  --      0.3252                 0.3994                 0.4357
 IR Inten    --      0.4368                 3.5526                 0.2950

                     22                     23                     24
                      A                      A                      A
 Frequencies --    515.1790               538.1097               543.9523
 Red. masses --      3.0049                 2.3963                 3.2918
 Frc consts  --      0.4699                 0.4088                 0.5739
 IR Inten    --      0.9493                 0.1208                 2.1858

                     25                     26                     27
                      A                      A                      A
 Frequencies --    556.4472               566.8391               589.4700
 Red. masses --      3.9265                 3.0941                 3.9441
 Frc consts  --      0.7163                 0.5857                 0.8075
 IR Inten    --      1.5878                 0.3499                 3.3992

                     28                     29                     30
                      A                      A                      A
 Frequencies --    603.1070               631.7531               690.8254
 Red. masses --      3.0965                 6.3340                 5.3265
 Frc consts  --      0.6636                 1.4894                 1.4977
 IR Inten    --      3.6445                 1.3801                 2.0228

                     31                     32                     33
                      A                      A                      A
 Frequencies --    729.5689               738.1832               754.5298
 Red. masses --      1.5739                 3.2868                 3.9033
 Frc consts  --      0.4936                 1.0552                 1.3093
 IR Inten    --     68.7782                 6.1784                 9.3393

                     34                     35                     36
                      A                      A                      A
 Frequencies --    761.2374               766.6715               792.3306
 Red. masses --      1.3326                 1.2642                 2.9015
 Frc consts  --      0.4550                 0.4378                 1.0732
 IR Inten    --     41.0965                41.7712                 3.9338

                     37                     38                     39
                      A                      A                      A
 Frequencies --    799.6842               835.1470               855.9498
 Red. masses --      2.9267                 2.5455                 1.4164
 Frc consts  --      1.1027                 1.0460                 0.6114
 IR Inten    --      8.0547                15.7836                 1.1900

                     40                     41                     42
                      A                      A                      A
 Frequencies --    864.4942               871.9213               886.4139
 Red. masses --      2.0364                 1.3958                 2.6844
 Frc consts  --      0.8967                 0.6252                 1.2427
 IR Inten    --      2.3824                 3.0226                25.1566

                     43                     44                     45
                      A                      A                      A
 Frequencies --    923.5895               934.2499               943.1385
 Red. masses --      1.9928                 1.3723                 1.3688
 Frc consts  --      1.0016                 0.7057                 0.7173
 IR Inten    --      3.1559                 0.4838                 4.5079

                     46                     47                     48
                      A                      A                      A
 Frequencies --    961.1254               967.7826               971.5120
 Red. masses --      2.2263                 2.0817                 1.2977
 Frc consts  --      1.2117                 1.1487                 0.7216
 IR Inten    --      1.2818                15.8567                 3.5606

                     49                     50                     51
                      A                      A                      A
 Frequencies --    975.2676               981.7004              1023.6242
 Red. masses --      1.3873                 1.8025                 2.3778
 Frc consts  --      0.7775                 1.0235                 1.4679
 IR Inten    --      3.5595                 2.2235                 3.3180

                     52                     53                     54
                      A                      A                      A
 Frequencies --   1048.4719              1072.4136              1083.2130
 Red. masses --      2.5482                 2.3050                 2.4774
 Frc consts  --      1.6504                 1.5619                 1.7126
 IR Inten    --      0.1767                10.5335                14.5547

                     55                     56                     57
                      A                      A                      A
 Frequencies --   1100.0993              1111.2913              1142.4674
 Red. masses --      2.1868                 2.0451                 1.9978
 Frc consts  --      1.5592                 1.4880                 1.5364
 IR Inten    --      7.6417                 8.7855                28.6860

                     58                     59                     60
                      A                      A                      A
 Frequencies --   1157.3072              1162.2261              1172.4579
 Red. masses --      1.5841                 1.7080                 2.1631
 Frc consts  --      1.2501                 1.3593                 1.7519
 IR Inten    --      2.6179                22.2914                25.6287

                     61                     62                     63
                      A                      A                      A
 Frequencies --   1182.2950              1192.3021              1197.9287
 Red. masses --      1.2589                 1.9067                 1.1966
 Frc consts  --      1.0368                 1.5970                 1.0117
 IR Inten    --      6.5854                33.3716                 1.1429

                     64                     65                     66
                      A                      A                      A
 Frequencies --   1200.9121              1216.0625              1231.5670
 Red. masses --      1.2407                 2.0056                 1.6883
 Frc consts  --      1.0542                 1.7474                 1.5087
 IR Inten    --      0.3030                33.4789                12.3308

                     67                     68                     69
                      A                      A                      A
 Frequencies --   1235.4179              1242.6558              1256.9004
 Red. masses --      1.5483                 1.9280                 1.6256
 Frc consts  --      1.3923                 1.7542                 1.5131
 IR Inten    --     13.2071                 1.3928                95.0864

                     70                     71                     72
                      A                      A                      A
 Frequencies --   1280.0662              1307.0545              1333.7593
 Red. masses --      1.3574                 1.5064                 1.3870
 Frc consts  --      1.3104                 1.5163                 1.4537
 IR Inten    --     17.2079                 3.8405                26.7715

                     73                     74                     75
                      A                      A                      A
 Frequencies --   1338.0419              1348.5812              1361.4391
 Red. masses --      1.5529                 5.8448                 2.8056
 Frc consts  --      1.6381                 6.2629                 3.0639
 IR Inten    --      0.5247                39.1208                 3.5864

                     76                     77                     78
                      A                      A                      A
 Frequencies --   1365.6074              1377.4335              1387.6180
 Red. masses --      1.7617                 1.8357                 1.4643
 Frc consts  --      1.9357                 2.0521                 1.6612
 IR Inten    --      0.7119                93.2728                47.7306

                     79                     80                     81
                      A                      A                      A
 Frequencies --   1390.6090              1409.2660              1416.2974
 Red. masses --      1.2703                 1.3303                 1.3293
 Frc consts  --      1.4473                 1.5566                 1.5710
 IR Inten    --      9.7213                15.1417                18.6074

                     82                     83                     84
                      A                      A                      A
 Frequencies --   1468.3938              1486.2625              1488.6250
 Red. masses --      1.1491                 1.2564                 1.9887
 Frc consts  --      1.4598                 1.6352                 2.5965
 IR Inten    --      1.2185                25.7175                65.2162

                     85                     86                     87
                      A                      A                      A
 Frequencies --   1490.4027              1499.2649              1507.5255
 Red. masses --      1.6656                 1.0990                 1.1563
 Frc consts  --      2.1799                 1.4555                 1.5482
 IR Inten    --     18.0618                 7.5417                 3.4216

                     88                     89                     90
                      A                      A                      A
 Frequencies --   1510.1562              1511.6543              1515.3896
 Red. masses --      1.2881                 1.1306                 1.1950
 Frc consts  --      1.7308                 1.5222                 1.6169
 IR Inten    --      5.3394                 7.0888                20.0070

                     91                     92                     93
                      A                      A                      A
 Frequencies --   1533.7642              1537.6026              1540.4718
 Red. masses --      1.7935                 1.7234                 1.1450
 Frc consts  --      2.4858                 2.4006                 1.6009
 IR Inten    --    148.0797                41.8525                15.8024

                     94                     95                     96
                      A                      A                      A
 Frequencies --   1553.6745              1625.7739              1634.3286
 Red. masses --      1.3121                 5.7331                 6.2212
 Frc consts  --      1.8661                 8.9281                 9.7905
 IR Inten    --      2.1587                 3.1068                12.4199

                     97                     98                     99
                      A                      A                      A
 Frequencies --   1655.1621              1664.2219              2996.8843
 Red. masses --      5.5645                 5.6887                 1.0459
 Frc consts  --      8.9817                 9.2829                 5.5346
 IR Inten    --     62.9917                 8.7157                41.0432

                    100                    101                    102
                      A                      A                      A
 Frequencies --   3020.9616              3036.1418              3043.0125
 Red. masses --      1.0632                 1.0689                 1.0643
 Frc consts  --      5.7170                 5.8052                 5.8067
 IR Inten    --     21.9418                41.8367                18.6802

                    103                    104                    105
                      A                      A                      A
 Frequencies --   3051.3190              3052.9519              3059.0829
 Red. masses --      1.0615                 1.0758                 1.1031
 Frc consts  --      5.8230                 5.9076                 6.0822
 IR Inten    --     21.6325                65.8006                39.8651

                    106                    107                    108
                      A                      A                      A
 Frequencies --   3062.6531              3090.2383              3099.5969
 Red. masses --      1.0901                 1.1023                 1.1016
 Frc consts  --      6.0243                 6.2022                 6.2359
 IR Inten    --     57.8729                29.1709                29.1644

                    109                    110                    111
                      A                      A                      A
 Frequencies --   3107.0689              3112.4689              3161.2463
 Red. masses --      1.1005                 1.0912                 1.0888
 Frc consts  --      6.2593                 6.2280                 6.4109
 IR Inten    --     25.7197                18.5625                19.5326

                    112                    113                    114
                      A                      A                      A
 Frequencies --   3174.3797              3176.1323              3187.2759
 Red. masses --      1.0874                 1.0875                 1.0891
 Frc consts  --      6.4558                 6.4634                 6.5184
 IR Inten    --      9.8765                11.3522                15.4620

                    115                    116                    117
                      A                      A                      A
 Frequencies --   3190.5157              3210.5289              3210.6564
 Red. masses --      1.0890                 1.0970                 1.0969
 Frc consts  --      6.5314                 6.6618                 6.6620
 IR Inten    --     12.6509                51.3953                 3.7138

                    118                    119                    120
                      A                      A                      A
 Frequencies --   3265.0709              3270.5170              3560.6305
 Red. masses --      1.0890                 1.0890                 1.0736
 Frc consts  --      6.8399                 6.8628                 8.0197
 IR Inten    --      3.4268                 8.8370                 8.6032

 - Thermochemistry -
 -------------------
 Temperature   298.150 Kelvin.  Pressure   1.00000 Atm.
 Atom     1 has atomic number  6 and mass  12.00000

 Molecular mass:   266.17830 amu.
 Principal axes and moments of inertia in atomic units:
                           1         2         3
     Eigenvalues --  3796.865285482.928997606.90591
           X            0.99984   0.01764   0.00113
           Y           -0.01763   0.99976  -0.01327
           Z           -0.00136   0.01325   0.99991
 This molecule is an asymmetric top.
 Rotational symmetry number  1.
 Warning -- assumption of classical behavior for rotation
           may cause significant error
 Rotational temperatures (Kelvin)      0.02281     0.01580     0.01139
 Rotational constants (GHZ):           0.47532     0.32916     0.23725
 Zero-point vibrational energy     966060.6 (Joules/Mol)
                                  230.89402 (Kcal/Mol)
 Warning -- explicit consideration of  28 degrees of freedom as
           vibrations may cause significant error
 Vibrational temperatures:     48.73    55.85    81.77   136.90   169.02
          (Kelvin)            202.91   227.68   238.39   271.74   312.81
                              365.99   394.41   426.13   458.01   485.75
                              507.58   535.28   609.07   658.93   684.55
                              689.49   741.23   774.22   782.63   800.60
                              815.56   848.12   867.74   908.95   993.94
                             1049.69  1062.08  1085.60  1095.25  1103.07
                             1139.99  1150.57  1201.59  1231.52  1243.81
                             1254.50  1275.35  1328.84  1344.18  1356.97
                             1382.85  1392.42  1397.79  1403.19  1412.45
                             1472.77  1508.52  1542.96  1558.50  1582.80
                             1598.90  1643.76  1665.11  1672.18  1686.91
                             1701.06  1715.46  1723.55  1727.84  1749.64
                             1771.95  1777.49  1787.90  1808.40  1841.73
                             1880.56  1918.98  1925.14  1940.31  1958.81
                             1964.80  1981.82  1996.47  2000.78  2027.62
                             2037.74  2112.69  2138.40  2141.80  2144.36
                             2157.11  2168.99  2172.78  2174.93  2180.31
                             2206.74  2212.27  2216.40  2235.39  2339.13
                             2351.43  2381.41  2394.44  4311.85  4346.49
                             4368.33  4378.22  4390.17  4392.52  4401.34
                             4406.47  4446.16  4459.63  4470.38  4478.15
                             4548.33  4567.22  4569.75  4585.78  4590.44
                             4619.24  4619.42  4697.71  4705.54  5122.95

 Zero-point correction=                           0.367953 (Hartree/Particle)
 Thermal correction to Energy=                    0.385060
 Thermal correction to Enthalpy=                  0.386004
 Thermal correction to Gibbs Free Energy=         0.323263
 Sum of electronic and zero-point Energies=           -808.403255
 Sum of electronic and thermal Energies=              -808.386148
 Sum of electronic and thermal Enthalpies=            -808.385204
 Sum of electronic and thermal Free Energies=         -808.447945

                     E (Thermal)             CV                S
                      KCal/Mol        Cal/Mol-Kelvin    Cal/Mol-Kelvin
 Total                  241.629             69.943            132.051
 Electronic               0.000              0.000              0.000
 Translational            0.889              2.981             42.636
 Rotational               0.889              2.981             33.426
 Vibrational            239.851             63.981             55.988
 Vibration     1          0.594              1.983              5.589
 Vibration     2          0.594              1.981              5.319
 Vibration     3          0.596              1.975              4.564
 Vibration     4          0.603              1.953              3.551
 Vibration     5          0.608              1.935              3.141
 Vibration     6          0.615              1.912              2.790
 Vibration     7          0.621              1.893              2.571
 Vibration     8          0.624              1.885              2.484
 Vibration     9          0.633              1.855              2.239
 Vibration    10          0.646              1.815              1.981
 Vibration    11          0.665              1.755              1.700
 Vibration    12          0.676              1.721              1.570
 Vibration    13          0.690              1.681              1.438
 Vibration    14          0.705              1.639              1.319
 Vibration    15          0.718              1.600              1.223
 Vibration    16          0.729              1.570              1.154
 Vibration    17          0.744              1.530              1.071
 Vibration    18          0.785              1.420              0.881
 Vibration    19          0.816              1.343              0.772
 Vibration    20          0.832              1.304              0.722
 Vibration    21          0.836              1.296              0.712
 Vibration    22          0.870              1.216              0.621
 Vibration    23          0.893              1.166              0.569
 Vibration    24          0.899              1.153              0.557
 Vibration    25          0.912              1.126              0.531
 Vibration    26          0.923              1.103              0.510
 Vibration    27          0.947              1.054              0.468
 Vibration    28          0.961              1.025              0.444

 Optimization completed.
    -- Stationary point found.
 Normal termination of Gaussian 16 at Fri Sep 23 16:23:11 2022.

 ----------------------------------------------------------------------
 # M062X/def2tzvp int=(grid=ultrafine) pop=nbo7 polar prop=efg volume g
 uess=read geom=check
 ----------------------------------------------------------------------

 ---------
 SecN5.xyz
 ---------
 Structure from the checkpoint file:  "SecN5_clust-14.chk"
 Charge =  0 Multiplicity = 1

 SCF Done:  E(RM062X) =  -808.585742446     A.U. after   12 cycles

  Exact polarizability:     288.493      -7.643     218.166      -7.272     -19.561     159.980
 Approx polarizability:     346.622      -9.722     283.454     -13.606     -32.551     225.567

 Summary of Natural Population Analysis:

                                     Natural Population
             Natural    ---------------------------------------------
  Atom No    Charge        Core      Valence    Rydberg      Total
 --------------------------------------------------------------------
    C  1   -0.41940      1.99999     4.40686    0.01254     6.41940
    N  2   -0.62743      1.99999     5.60174    0.02569     7.62743
    C  3   -0.21709      1.99999     4.20187    0.01523     6.21709
    C  4   -0.44159      1.99999     4.43117    0.01043     6.44159
    C  5   -0.21084      1.99999     4.19767    0.01318     6.21084
    N  6   -0.42317      1.99999     5.40038    0.02279     7.42317
    C  7    0.17507      1.99999     3.80672    0.01822     5.82493
    C  8   -0.06036      1.99999     4.04397    0.01640     6.06036
    C  9   -0.40803      1.99999     4.39715    0.01088     6.40803
    C 10   -0.41300      1.99999     4.40192    0.01109     6.41300
    C 11   -0.04398      1.99999     4.02724    0.01675     6.04398
    C 12    0.16212      1.99999     3.82001    0.01787     5.83788
    C 13   -0.26298      1.99999     4.24673    0.01627     6.26298
    C 14   -0.20202      1.99999     4.18541    0.01662     6.20202
    C 15   -0.23181      1.99999     4.21489    0.01693     6.23181
    C 16   -0.19410      1.99999     4.17779    0.01632     6.19410
    C 17   -0.18856      1.99999     4.17216    0.01640     6.18856
    C 18   -0.24388      1.99999     4.22645    0.01743     6.24388
    C 19   -0.20101      1.99999     4.18422    0.01680     6.20101
    C 20   -0.26574      1.99999     4.24908    0.01667     6.26574
    H 21    0.18688      0.00000     0.81142    0.00170     0.81312
    H 22    0.17500      0.00000     0.82260    0.00240     0.82500
    H 23    0.20188      0.00000     0.79693    0.00119     0.79812
    H 24    0.36149      0.00000     0.63631    0.00220     0.63851
    H 25    0.18550      0.00000     0.81278    0.00172     0.81450
    H 26    0.19365      0.00000     0.80423    0.00213     0.80635
    H 27    0.21370      0.00000     0.78495    0.00135     0.78630
    H 28    0.21208      0.00000     0.78624    0.00168     0.78792
    H 29    0.21696      0.00000     0.78126    0.00178     0.78304
    H 30    0.19850      0.00000     0.79911    0.00239     0.80150
    H 31    0.21423      0.00000     0.78424    0.00153     0.78577
    H 32    0.21700      0.00000     0.78118    0.00182     0.78300
    H 33    0.22043      0.00000     0.77783    0.00175     0.77957
    H 34    0.21454      0.00000     0.78399    0.00147     0.78546
    H 35    0.21388      0.00000     0.78422    0.00190     0.78612
    H 36    0.21554      0.00000     0.78328    0.00117     0.78446
    H 37    0.21642      0.00000     0.78245    0.00113     0.78358
    H 38    0.20926      0.00000     0.78935    0.00139     0.79074
    H 39    0.20795      0.00000     0.79067    0.00138     0.79205
    H 40    0.21612      0.00000     0.78273    0.00115     0.78388
    H 41    0.21377      0.00000     0.78506    0.00117     0.78623
    H 42    0.21303      0.00000     0.78531    0.00165     0.78697
 ====================================================================
 * Total *  0.00000     39.99984   103.63959    0.36057   144.00000

 1\1\GINC-NOTCH363\SP\RM062X\def2TZVP\C18H22N2\U6032257\23-Sep-2022\0\\
 # M062X/def2tzvp int=(grid=ultrafine) pop=nbo7 polar prop=efg volume g
 uess=read geom=check\\SecN5.xyz\\0,1\C,0,1.2013319013,-3.7618285072,1.
 8314496296\N,0,-0.1022851627,-3.1129541252,1.9056544436\C,0,-0.1715984
 123,-1.9779213533,2.8162455093\C,0,0.7487632417,-0.7676579393,2.549137
 7147\C,0,0.4889967128,0.0631611155,1.2792776972\N,0,0.616179895,-0.646
 1761784,-0.0134771399\C,0,1.9301244466,-1.0530438336,-0.3718525999\C,0
 ,2.259691433,-1.9256535327,-1.4458997827\C,0,1.2923722812,-2.308292240

 Normal termination of Gaussian 16 at Fri Sep 23 16:33:59 2022.
 Gaussian 16:  ES64L-G16RevC.01  3-Jul-2019

 --------------------------------------------------------------------
 # M062X/def2tzvp int=(grid=ultrafine) nmr=giao guess=read geom=check
 --------------------------------------------------------------------

 ---------
 SecN5.xyz
 ---------
 Structure from the checkpoint file:  "SecN5_clust-14.chk"
 Charge =  0 Multiplicity = 1

                         Standard orientation:
 ---------------------------------------------------------------------
 Center     Atomic      Atomic             Coordinates (Angstroms)
 Number     Number       Type             X           Y           Z
 ---------------------------------------------------------------------
      1          6           0        1.384237    1.980591    2.060401
      2          7           0        0.073245    2.376756    1.560085
      3          6           0        0.098842    3.213169    0.367594
      4          6           0        0.746521    2.643381   -0.912641
      5          6           0        0.051003    1.453350   -1.598474
      6          7           0       -0.077248    0.212653   -0.801749
      7          6           0        1.136048   -0.471414   -0.518217
      8          6           0        1.280792   -1.549373    0.398675
      9          6           0        0.118590   -2.309622    0.979216
     10          6           0       -0.910076   -2.624631   -0.127234
     11          6           0       -1.859929   -1.469328   -0.228911
     12          6           0       -1.405698   -0.141430   -0.423331
     13          6           0       -2.362402    0.887342   -0.271529
     14          6           0       -3.704078    0.629235   -0.011273
     15          6           0       -4.150360   -0.679275    0.129693
     16          6           0       -3.211745   -1.702058    0.040473
     17          6           0        2.558590   -2.044960    0.678469
     18          6           0        3.715752   -1.551150    0.087947
     19          6           0        3.574055   -0.552177   -0.866744
     20          6           0        2.318218   -0.036460   -1.164715
     21          1           0        1.952744    2.879104    2.329019
     22          1           0        1.997794    1.387900    1.364650
     23          1           0        1.253676    1.389445    2.971857
     24          1           0       -0.497398    1.553717    1.398162
     25          1           0       -0.928933    3.533173    0.155133
     26          1           0        0.645242    4.130300    0.625651
     27          1           0        0.787924    3.448769   -1.658557
     28          1           0        1.784955    2.387198   -0.689785
     29          1           0       -0.947032    1.738208   -1.921679
     30          1           0        0.583008    1.213383   -2.525133
     31          1           0        0.500040   -3.233345    1.424052
     32          1           0       -0.385799   -1.759586    1.782338
     33          1           0       -0.378969   -2.814652   -1.066707
     34          1           0       -1.473529   -3.530407    0.113931
     35          1           0       -2.063211    1.920988   -0.348336
     36          1           0       -4.389646    1.464650    0.091007
     37          1           0       -5.193734   -0.900296    0.327965
     38          1           0       -3.525351   -2.732022    0.186897
     39          1           0        2.630602   -2.868241    1.383957
     40          1           0        4.688565   -1.956384    0.344651
     41          1           0        4.438522   -0.160491   -1.394207
     42          1           0        2.278396    0.731595   -1.919625
 ---------------------------------------------------------------------

 SCF Done:  E(RM062X) =  -808.585742446     A.U. after    1 cycles

      1  C    Isotropic =   151.4708   Anisotropy =    49.3856

      2  N    Isotropic =   229.6960   Anisotropy =    58.4030

      3  C    Isotropic =   132.3715   Anisotropy =    36.4135

      4  C    Isotropic =   163.8048   Anisotropy =    23.5962

      5  C    Isotropic =   129.1357   Anisotropy =    45.8321

      6  N    Isotropic =   131.7667   Anisotropy =    38.9240

      7  C    Isotropic =    20.1190   Anisotropy =   180.9751

      8  C    Isotropic =    30.4734   Anisotropy =   199.8688

      9  C    Isotropic =   139.5839   Anisotropy =    31.4721

     10  C    Isotropic =   142.0389   Anisotropy =    25.6656

     11  C    Isotropic =    24.5973   Anisotropy =   208.7116

     12  C    Isotropic =    15.8280   Anisotropy =   174.0608

     13  C    Isotropic =    44.1556   Anisotropy =   182.1565

     14  C    Isotropic =    37.2859   Anisotropy =   207.9088

     15  C    Isotropic =    45.2396   Anisotropy =   202.0099

     16  C    Isotropic =    34.0621   Anisotropy =   175.5414

     17  C    Isotropic =    31.7388   Anisotropy =   178.6796

     18  C    Isotropic =    48.0151   Anisotropy =   195.1303

     19  C    Isotropic =    37.6176   Anisotropy =   208.3829

     20  C    Isotropic =    48.0704   Anisotropy =   193.0243

     21  H    Isotropic =    30.4812   Anisotropy =    10.6860

     22  H    Isotropic =    30.5825   Anisotropy =    10.8835

     23  H    Isotropic =    30.0970   Anisotropy =     8.4457

     24  H    Isotropic =    31.6297   Anisotropy =    14.4173

     25  H    Isotropic =    28.2176   Anisotropy =     7.5391

     26  H    Isotropic =    29.2515   Anisotropy =     9.9496

     27  H    Isotropic =    31.0484   Anisotropy =    10.7185

     28  H    Isotropic =    28.7390   Anisotropy =     5.6528

     29  H    Isotropic =    27.6075   Anisotropy =     3.3241

     30  H    Isotropic =    27.4236   Anisotropy =     7.1957

     31  H    Isotropic =    28.8018   Anisotropy =     9.2184

     32  H    Isotropic =    29.0054   Anisotropy =     3.7013

     33  H    Isotropic =    28.8799   Anisotropy =     4.4590

     34  H    Isotropic =    28.8353   Anisotropy =     9.3065

     35  H    Isotropic =    23.6100   Anisotropy =    11.0653

     36  H    Isotropic =    23.8978   Anisotropy =     6.7232

     37  H    Isotropic =    24.3210   Anisotropy =     4.7913

     38  H    Isotropic =    24.1310   Anisotropy =     8.4059

     39  H    Isotropic =    24.0656   Anisotropy =     8.5779

     40  H    Isotropic =    24.4543   Anisotropy =     4.4337

     41  H    Isotropic =    23.9516   Anisotropy =     5.9923

     42  H    Isotropic =    24.0413   Anisotropy =    10.9123

 The electronic state is 1-A.
 Alpha  occ. eigenvalues --  -14.78627 -14.71992 -10.59401 -10.59341 -10.57566
 Alpha  occ. eigenvalues --  -10.55713 -10.55053 -10.54897 -10.54190 -10.54162
 Alpha  occ. eigenvalues --  -10.54111 -10.54110 -10.54085 -10.53988 -10.53912
 Alpha  occ. eigenvalues --  -10.53838 -10.53724 -10.53623 -10.53500 -10.53199
 Alpha  occ. eigenvalues --   -1.06934  -0.99905  -0.96347  -0.95381  -0.90419
 Alpha  occ. eigenvalues --   -0.86996  -0.85608  -0.85440  -0.82108  -0.79936
 Alpha  occ. eigenvalues --   -0.77429  -0.74121  -0.73566  -0.68908  -0.68543
 Alpha  occ. eigenvalues --   -0.67568  -0.66161  -0.64596  -0.59996  -0.58685
 Alpha  occ. eigenvalues --   -0.56876  -0.55485  -0.54807  -0.53941  -0.53568
 Alpha  occ. eigenvalues --   -0.52039  -0.51683  -0.49929  -0.49759  -0.49185
 Alpha  occ. eigenvalues --   -0.47856  -0.47688  -0.46760  -0.46714  -0.45370
 Alpha  occ. eigenvalues --   -0.44718  -0.43663  -0.43433  -0.42605  -0.41792
 Alpha  occ. eigenvalues --   -0.41463  -0.40874  -0.40448  -0.39277  -0.39016
 Alpha  occ. eigenvalues --   -0.38558  -0.36882  -0.30985  -0.30160  -0.29671
 Alpha  occ. eigenvalues --   -0.27859  -0.23845
 Alpha virt. eigenvalues --    0.00935   0.02054   0.02521   0.04194   0.06309
 Alpha virt. eigenvalues --    0.07151   0.07963   0.08198   0.09137   0.09627
 Alpha virt. eigenvalues --    0.10074   0.11166   0.11950   0.12129   0.12343

 Mulliken charges:
               1
     1  C   -0.371151
     2  N   -0.315928
     3  C   -0.275610
     4  C   -0.277896
     5  C   -0.347254
     6  N   -0.062937
     7  C    0.036778
     8  C    0.083217
     9  C   -0.333911
    10  C   -0.366106
    11  C    0.034675
    12  C    0.101494
    13  C   -0.206498
    14  C   -0.196146
    15  C   -0.170804
    16  C   -0.140088
    17  C   -0.137454
    18  C   -0.178957
    19  C   -0.157198
    20  C   -0.224662
    21  H    0.146587
    22  H    0.148744
    23  H    0.148806
    24  H    0.228973
    25  H    0.161383
    26  H    0.158688
    27  H    0.148911
    28  H    0.189599
    29  H    0.206300
    30  H    0.176526
    31  H    0.141044
    32  H    0.179262
    33  H    0.187463
    34  H    0.144715
    35  H    0.153521
    36  H    0.141438
    37  H    0.140351
    38  H    0.133657
    39  H    0.132599
    40  H    0.138885
    41  H    0.139357
    42  H    0.159629
 Sum of Mulliken charges =  -0.00000

 Dipole moment (field-independent basis, Debye):
    X=              0.1550    Y=             -0.3317    Z=             -1.1055  Tot=              1.1646
 Quadrupole moment (field-independent basis, Debye-Ang):
   XX=           -116.5405   YY=           -115.6398   ZZ=           -125.1828
   XY=              1.7740   XZ=             -0.7511   YZ=             -9.5556

 1\1\GINC-NOTCH363\SP\RM062X\def2TZVP\C18H22N2\U6032257\23-Sep-2022\0\\
 # M062X/def2tzvp int=(grid=ultrafine) nmr=giao guess=read geom=check\\
 SecN5.xyz\\0,1\C,0,1.2013319013,-3.7618285072,1.8314496296\N,0,-0.1022
 851627,-3.1129541252,1.9056544436\C,0,-0.1715984123,-1.9779213533,2.81
 62455093\C,0,0.7487632417,-0.7676579393,2.5491377147\C,0,0.4889967128,
 0.0631611155,1.2792776972\N,0,0.616179895,-0.6461761784,-0.0134771399\
 C,0,1.9301244466,-1.0530438336,-0.3718525999\C,0,2.259691433,-1.925653
 5327,-1.4458997827\C,0,1.2923722812,-2.3082922401,-2.5338333971\C,0,0.

 Normal termination of Gaussian 16 at Fri Sep 23 16:38:09 2022.
